/*--------------------------------*- C++ -*----------------------------------*\
  =========                 |
  \\      /  F ield         | OpenFOAM: The Open Source CFD Toolbox
   \\    /   O peration     | Website:  https://openfoam.org
    \\  /    A nd           | Version:  9
     \\/     M anipulation  |
\*---------------------------------------------------------------------------*/
FoamFile
{
    format      ascii;
    class       volScalarField;
    location    "3000";
    object      gammaInt;
}
// * * * * * * * * * * * * * * * * * * * * * * * * * * * * * * * * * * * * * //

dimensions      [0 0 0 0 0 0 0];

internalField   nonuniform List<scalar> 
13354
(
0.353047
0.383914
0.42797
0.494902
0.474603
0.505894
0.565828
0.433506
0.324916
0.245037
0.0640853
0.0219058
0.0581065
0.294678
0.360857
0.445233
0.530311
0.475686
0.460694
0.618956
0.556627
0.407867
0.320067
0.23129
0.104482
0.0508369
0.270246
0.305021
0.379571
0.464763
0.452261
0.440863
0.580278
0.651512
0.53085
0.424537
0.351791
0.271853
0.217655
0.307042
0.300013
0.328333
0.376695
0.418458
0.420347
0.510461
0.692442
0.621357
0.505805
0.461202
0.415439
0.369715
0.381896
0.342667
0.33725
0.354532
0.37995
0.40319
0.453626
0.643353
0.685979
0.550756
0.504296
0.490294
0.452994
0.470941
0.411375
0.380977
0.375086
0.3849
0.400655
0.424788
0.55995
0.718413
0.582287
0.50567
0.510538
0.489728
0.559618
0.489643
0.44189
0.416488
0.408881
0.41205
0.41912
0.499487
0.673306
0.623177
0.497399
0.504639
0.501866
0.639982
0.567237
0.508994
0.468698
0.445018
0.433885
0.429434
0.470124
0.596865
0.675072
0.495219
0.484953
0.500445
0.707543
0.637819
0.575139
0.525006
0.48855
0.464146
0.447676
0.465888
0.541877
0.629323
0.50552
0.459083
0.489775
0.75983
0.697447
0.635535
0.580547
0.53526
0.499952
0.472385
0.471846
0.523426
0.584769
0.5938
0.439801
0.472188
0.796231
0.743835
0.686868
0.631509
0.58147
0.538345
0.501493
0.484731
0.518838
0.551026
0.707669
0.435022
0.45059
0.817765
0.776131
0.726758
0.674662
0.623632
0.576104
0.532568
0.502494
0.519136
0.536782
0.590455
0.45725
0.428505
0.8265
0.794965
0.754806
0.708956
0.660193
0.610877
0.562923
0.522917
0.520779
0.531912
0.524591
0.554175
0.417363
0.825485
0.803433
0.77385
0.73748
0.69476
0.645968
0.59361
0.544782
0.524748
0.527652
0.498235
0.615148
0.427274
0.818096
0.80415
0.785221
0.760559
0.728146
0.684992
0.631327
0.573905
0.534325
0.523385
0.488334
0.546258
0.442599
0.806759
0.799098
0.790042
0.778069
0.758764
0.726203
0.676003
0.615197
0.560134
0.52783
0.485262
0.485368
0.473105
0.793137
0.790056
0.789811
0.790192
0.784901
0.765984
0.722661
0.664585
0.602919
0.552644
0.492453
0.453007
0.517101
0.778247
0.778667
0.786317
0.797833
0.805698
0.800155
0.76496
0.713134
0.654811
0.596301
0.52035
0.442921
0.503391
0.762707
0.766331
0.781185
0.802302
0.8211
0.825677
0.797033
0.751215
0.702505
0.647281
0.566004
0.455253
0.473657
0.746964
0.754005
0.775381
0.80458
0.831073
0.841008
0.816615
0.774699
0.735911
0.691051
0.616806
0.487058
0.452835
0.731418
0.742105
0.769155
0.804147
0.834352
0.845626
0.823631
0.783741
0.750714
0.717404
0.657916
0.527423
0.449889
0.716412
0.730638
0.761948
0.799182
0.829067
0.839071
0.818219
0.779372
0.747908
0.721916
0.67901
0.56324
0.461716
0.702123
0.719261
0.752625
0.788345
0.814157
0.821039
0.801237
0.763471
0.731512
0.708081
0.677826
0.583878
0.478217
0.688418
0.707327
0.740317
0.771993
0.791647
0.794995
0.77667
0.740198
0.707538
0.684636
0.662488
0.588161
0.491325
0.674809
0.694052
0.724694
0.751621
0.765457
0.765315
0.747804
0.713382
0.680702
0.658563
0.641913
0.582947
0.498929
0.660521
0.678662
0.705636
0.727942
0.737238
0.733811
0.715954
0.683206
0.650733
0.62903
0.615772
0.573672
0.502787
0.644647
0.660504
0.683223
0.701377
0.70732
0.701441
0.683313
0.652476
0.620618
0.598819
0.586785
0.558575
0.504597
0.626371
0.639185
0.65784
0.672805
0.676918
0.670129
0.652816
0.624724
0.594297
0.571981
0.559198
0.540002
0.501566
0.605165
0.614673
0.6301
0.643295
0.647326
0.641515
0.626493
0.602288
0.574384
0.551808
0.536762
0.521707
0.494826
0.58097
0.587426
0.600826
0.613706
0.619241
0.616056
0.604684
0.58522
0.561069
0.538952
0.521526
0.506841
0.486437
0.554299
0.558427
0.571056
0.584811
0.592798
0.593151
0.586058
0.571818
0.552144
0.531777
0.51272
0.496514
0.478319
0.526159
0.529017
0.54199
0.557299
0.568035
0.571947
0.569052
0.559775
0.544803
0.526956
0.507238
0.488892
0.469704
0.497881
0.500632
0.514887
0.531997
0.545152
0.552075
0.552812
0.547583
0.536505
0.520826
0.500781
0.479932
0.458386
0.470973
0.474909
0.491071
0.510128
0.525063
0.534047
0.53698
0.53432
0.525085
0.51028
0.488806
0.465721
0.43945
0.44725
0.453296
0.471771
0.492336
0.508622
0.518304
0.522183
0.519046
0.509354
0.492343
0.469368
0.44171
0.414958
0.43117
0.426455
0.436632
0.457112
0.478424
0.49437
0.503962
0.505459
0.500337
0.486545
0.467203
0.439722
0.413163
0.391099
0.675247
0.63802
0.599443
0.555062
0.519902
0.491344
0.455755
0.424659
0.409257
0.410066
0.424202
0.446141
0.466545
0.480733
0.487131
0.485387
0.474298
0.457844
0.433167
0.408789
0.388034
0.37348
0.658792
0.620038
0.578506
0.534414
0.501477
0.470339
0.434024
0.407191
0.394795
0.398796
0.415352
0.43693
0.455304
0.465203
0.467555
0.459925
0.445629
0.422896
0.401348
0.383918
0.370558
0.362009
0.641657
0.60062
0.556612
0.514296
0.481873
0.447976
0.41469
0.394566
0.386501
0.392082
0.408746
0.42837
0.442188
0.447967
0.444276
0.43373
0.413044
0.393757
0.378554
0.367742
0.359919
0.355322
0.623456
0.579504
0.534442
0.493899
0.459861
0.425718
0.399101
0.386301
0.382485
0.388859
0.404169
0.419261
0.428174
0.427943
0.421475
0.404709
0.387296
0.37383
0.364577
0.35857
0.354218
0.351857
0.603712
0.557069
0.512568
0.471783
0.435811
0.405874
0.388156
0.381955
0.381157
0.387301
0.399316
0.408619
0.411914
0.409402
0.396454
0.381771
0.37012
0.362163
0.357165
0.353972
0.351703
0.350804
0.582346
0.534257
0.490475
0.446921
0.412033
0.390436
0.381563
0.38038
0.381761
0.385662
0.393363
0.397997
0.398916
0.388668
0.37668
0.36702
0.360414
0.356279
0.353961
0.352443
0.351667
0.352242
0.614978
0.560021
0.512358
0.466597
0.420029
0.39176
0.380165
0.378739
0.380999
0.382599
0.385882
0.388778
0.39039
0.382093
0.372101
0.3642
0.358958
0.355943
0.354268
0.353614
0.353463
0.354654
0.357812
0.594766
0.538259
0.491663
0.439263
0.394303
0.377124
0.374454
0.379304
0.382134
0.384126
0.384088
0.384774
0.376594
0.368034
0.3618
0.357798
0.355659
0.354917
0.35516
0.35633
0.35818
0.361793
0.368355
0.575265
0.518883
0.471106
0.408937
0.373405
0.368253
0.37209
0.381113
0.383941
0.382657
0.381685
0.372222
0.364866
0.359709
0.356831
0.355474
0.355826
0.357214
0.359426
0.362478
0.366715
0.373168
0.383504
0.557941
0.50268
0.448516
0.3791
0.359164
0.363435
0.371696
0.383419
0.382492
0.38053
0.369316
0.362338
0.358398
0.356312
0.355942
0.356969
0.359332
0.362565
0.36679
0.371869
0.378757
0.388027
0.402396
0.544084
0.48925
0.422754
0.354699
0.350884
0.360737
0.371769
0.382689
0.379869
0.367524
0.360296
0.357368
0.356803
0.357404
0.358915
0.361927
0.365888
0.370795
0.376832
0.383653
0.393177
0.405249
0.422932
0.534548
0.477186
0.396287
0.338019
0.345891
0.358421
0.372449
0.379942
0.366816
0.359034
0.356623
0.356927
0.358908
0.362005
0.365531
0.370364
0.375181
0.381126
0.388791
0.397143
0.408959
0.422845
0.443477
0.52931
0.465629
0.372559
0.327973
0.342123
0.356045
0.374166
0.368443
0.358694
0.355604
0.356903
0.359648
0.363569
0.368938
0.374692
0.381611
0.387277
0.39432
0.402648
0.411356
0.424411
0.439885
0.461321
0.527824
0.454721
0.353845
0.322127
0.337987
0.353401
0.379332
0.361679
0.355542
0.355544
0.359394
0.364106
0.369124
0.376151
0.385136
0.394601
0.401166
0.408578
0.417729
0.426486
0.439763
0.454137
0.473096
0.529572
0.445418
0.340707
0.318489
0.334107
0.350764
0.381209
0.359389
0.355421
0.356979
0.362503
0.36884
0.374609
0.382298
0.393527
0.406274
0.415531
0.425459
0.433608
0.440768
0.45137
0.463398
0.47892
0.534067
0.4388
0.332526
0.315893
0.330452
0.34749
0.378717
0.360019
0.357067
0.359174
0.365296
0.372723
0.378813
0.386434
0.398669
0.414277
0.426158
0.437588
0.445356
0.451182
0.459094
0.468614
0.480725
0.540815
0.435675
0.328352
0.313799
0.326944
0.34353
0.375691
0.361958
0.358975
0.360729
0.366749
0.374809
0.381161
0.388198
0.398502
0.41368
0.428326
0.441965
0.451206
0.457564
0.464087
0.471562
0.480691
0.548929
0.43615
0.327484
0.312112
0.323576
0.339073
0.372168
0.363188
0.359985
0.361469
0.366895
0.374613
0.381355
0.387945
0.395654
0.407218
0.422049
0.437227
0.449682
0.458706
0.465874
0.472539
0.479886
0.557394
0.440367
0.329347
0.310928
0.320351
0.333758
0.36107
0.36188
0.358425
0.359227
0.364183
0.371915
0.379493
0.385839
0.392123
0.399688
0.410095
0.424546
0.43906
0.452135
0.462156
0.470821
0.478556
0.564948
0.447873
0.333806
0.310449
0.317384
0.32828
0.348839
0.355392
0.352316
0.353955
0.359517
0.366467
0.374862
0.382199
0.387513
0.39284
0.399574
0.408495
0.422361
0.43751
0.452445
0.465454
0.475614
0.569571
0.457173
0.340926
0.311055
0.314857
0.323315
0.337777
0.34415
0.34224
0.34389
0.349327
0.357398
0.367645
0.375464
0.381227
0.386051
0.390999
0.397122
0.405938
0.419463
0.436709
0.45418
0.46838
0.570911
0.468242
0.35041
0.313174
0.313245
0.319257
0.328975
0.334034
0.333017
0.334355
0.338918
0.346362
0.356192
0.366607
0.37281
0.378333
0.383376
0.388146
0.394343
0.40321
0.417189
0.435732
0.453835
0.59647
0.564763
0.47895
0.362468
0.317319
0.31278
0.316224
0.322611
0.326305
0.325725
0.326538
0.329883
0.33584
0.344109
0.353406
0.361533
0.369381
0.375284
0.380394
0.385287
0.391603
0.400604
0.41398
0.432916
0.577857
0.553697
0.487274
0.377014
0.323738
0.313758
0.314503
0.3184
0.32092
0.320371
0.320575
0.322714
0.326992
0.333335
0.341021
0.349114
0.35792
0.366206
0.372211
0.377451
0.38244
0.38884
0.39759
0.41051
0.571397
0.558947
0.540073
0.493887
0.392764
0.333066
0.316726
0.314277
0.316064
0.317477
0.316681
0.316212
0.317316
0.320143
0.324656
0.330565
0.337526
0.345736
0.354633
0.363088
0.369122
0.37449
0.379734
0.386364
0.394732
0.552735
0.541019
0.525673
0.494825
0.409959
0.345375
0.322178
0.315855
0.315289
0.315652
0.314388
0.313226
0.313385
0.315063
0.318118
0.322422
0.327845
0.334579
0.342608
0.351416
0.359996
0.366242
0.372279
0.377732
0.38371
0.53662
0.525089
0.511932
0.490897
0.426667
0.361083
0.330673
0.319573
0.316313
0.3153
0.313347
0.311475
0.310732
0.311445
0.313371
0.316405
0.320424
0.325482
0.331857
0.339561
0.348216
0.357415
0.363861
0.369573
0.374832
0.523172
0.511639
0.499818
0.484752
0.440249
0.379073
0.34265
0.326135
0.31963
0.31676
0.313699
0.311002
0.309283
0.309069
0.310121
0.312171
0.31505
0.318657
0.323311
0.329273
0.336536
0.345013
0.353445
0.360594
0.366464
0.512319
0.500718
0.489705
0.478137
0.451573
0.397778
0.357965
0.336244
0.325813
0.320538
0.315897
0.312029
0.3093
0.308026
0.308166
0.30938
0.311395
0.313909
0.317113
0.321325
0.326727
0.333445
0.341211
0.349716
0.357738
0.503879
0.492201
0.481674
0.472081
0.456441
0.415741
0.375767
0.34971
0.335346
0.327177
0.320618
0.315177
0.311085
0.308536
0.307649
0.307993
0.309185
0.310838
0.312991
0.315839
0.319544
0.324252
0.330223
0.337924
0.346784
0.497634
0.4859
0.475676
0.467157
0.457633
0.43085
0.394581
0.366197
0.348162
0.337
0.328363
0.32108
0.315337
0.31115
0.308804
0.30809
0.308443
0.309322
0.310614
0.312421
0.314844
0.317907
0.321948
0.327869
0.335556
0.493381
0.481629
0.471609
0.463661
0.457333
0.443076
0.413389
0.384896
0.364316
0.350161
0.339465
0.330252
0.3224
0.316309
0.312259
0.31014
0.309339
0.309304
0.309828
0.310833
0.312315
0.314128
0.31655
0.320642
0.32651
0.49095
0.479222
0.469366
0.46173
0.456947
0.451407
0.430858
0.405168
0.383309
0.36702
0.35413
0.342775
0.332606
0.324303
0.318176
0.314387
0.31225
0.311155
0.31074
0.310906
0.311594
0.312518
0.313782
0.316398
0.320479
0.490223
0.478566
0.468869
0.461434
0.45733
0.456184
0.445812
0.425279
0.404513
0.387248
0.372519
0.358717
0.345813
0.335054
0.326703
0.320993
0.317233
0.314884
0.313469
0.312802
0.31274
0.312853
0.313195
0.314674
0.317366
0.491126
0.479588
0.470072
0.462822
0.459006
0.459877
0.459059
0.445042
0.427015
0.410407
0.394005
0.377516
0.361791
0.34824
0.33746
0.329719
0.324266
0.320563
0.318002
0.316412
0.315597
0.315007
0.314646
0.315248
0.316801
0.493641
0.482279
0.472983
0.465955
0.462313
0.464024
0.469401
0.463886
0.450487
0.435423
0.417631
0.39818
0.379466
0.363165
0.350045
0.340167
0.332938
0.327844
0.324181
0.321708
0.320133
0.31883
0.317846
0.317747
0.318432
0.497791
0.486662
0.477644
0.470929
0.467507
0.469576
0.477954
0.481496
0.474925
0.461274
0.441553
0.419258
0.397686
0.378683
0.36332
0.351535
0.342771
0.336402
0.331645
0.328303
0.326016
0.324126
0.322662
0.322015
0.321957
0.503653
0.492825
0.484164
0.477873
0.474821
0.477211
0.487106
0.49929
0.499758
0.486581
0.464156
0.438828
0.414571
0.393395
0.376198
0.362779
0.352741
0.345364
0.339839
0.335875
0.333013
0.330593
0.328723
0.327642
0.327038
0.511318
0.500864
0.492684
0.486978
0.484502
0.487333
0.498292
0.51726
0.523258
0.509327
0.4838
0.455407
0.428654
0.405636
0.387083
0.372699
0.361929
0.353935
0.347918
0.343579
0.340396
0.33776
0.335739
0.334408
0.33339
0.520909
0.51093
0.503356
0.498369
0.496749
0.500295
0.512118
0.53493
0.543257
0.527311
0.498838
0.467772
0.438966
0.414517
0.395025
0.380107
0.369056
0.360965
0.355012
0.35073
0.347553
0.34491
0.342925
0.341554
0.340416
0.532484
0.523066
0.516272
0.512207
0.51158
0.51611
0.528753
0.552987
0.557926
0.5388
0.507929
0.474998
0.444894
0.419636
0.399708
0.384655
0.373659
0.365773
0.360154
0.356223
0.353406
0.351202
0.349598
0.348488
0.347492
0.54608
0.537337
0.531373
0.528238
0.528778
0.534163
0.547047
0.56845
0.565585
0.542882
0.510406
0.476678
0.446249
0.420963
0.401206
0.386462
0.37585
0.368399
0.363262
0.359801
0.357452
0.35578
0.354688
0.354037
0.353472
0.561423
0.553441
0.548343
0.54616
0.547279
0.552898
0.563681
0.57556
0.565147
0.539432
0.506374
0.473008
0.443282
0.418808
0.399863
0.385896
0.375997
0.369195
0.364655
0.361729
0.359867
0.3587
0.3581
0.357912
0.357782
0.578094
0.57082
0.566169
0.564517
0.565585
0.56905
0.575022
0.573566
0.556854
0.529213
0.496667
0.46475
0.436669
0.413774
0.396232
0.383472
0.374581
0.368616
0.364776
0.362425
0.361052
0.360349
0.360197
0.360413
0.360647
0.59478
0.587924
0.583334
0.580971
0.579745
0.579165
0.574394
0.563143
0.541936
0.513637
0.482629
0.453047
0.427369
0.406662
0.390994
0.379773
0.372114
0.367124
0.364054
0.362305
0.361418
0.361157
0.361424
0.361989
0.362526
0.610024
0.602594
0.596523
0.591724
0.586259
0.576822
0.563699
0.545937
0.522194
0.494467
0.465821
0.439208
0.416451
0.398343
0.384851
0.375377
0.369081
0.365136
0.362865
0.36172
0.361316
0.361494
0.36218
0.363059
0.363842
0.620362
0.611351
0.602941
0.592449
0.579905
0.564173
0.545563
0.524091
0.499598
0.473479
0.447772
0.424501
0.404938
0.389626
0.378446
0.370795
0.365892
0.362997
0.361511
0.36095
0.361025
0.361662
0.362795
0.363975
0.364968
0.623563
0.610542
0.596993
0.581497
0.564088
0.544321
0.522681
0.499774
0.475979
0.452227
0.429795
0.41
0.393685
0.381183
0.372295
0.366424
0.36286
0.360963
0.360215
0.360212
0.36077
0.361914
0.363547
0.365045
0.366237
0.614246
0.598193
0.581097
0.562292
0.541975
0.52016
0.497502
0.474887
0.452847
0.431936
0.412886
0.396509
0.383325
0.373497
0.366759
0.362536
0.3602
0.359212
0.359141
0.359672
0.360751
0.362488
0.364688
0.366517
0.367961
0.595772
0.577733
0.558504
0.537934
0.51639
0.494163
0.472023
0.450915
0.431306
0.413449
0.397712
0.384547
0.374256
0.366862
0.362051
0.359288
0.358037
0.357858
0.35841
0.359486
0.361175
0.36364
0.366471
0.368647
0.370418
0.571241
0.552208
0.532089
0.511078
0.489657
0.468264
0.447725
0.428893
0.412064
0.397264
0.384631
0.37438
0.366663
0.3614
0.358254
0.356744
0.356435
0.35698
0.358125
0.359813
0.362284
0.365685
0.36922
0.371778
0.373997
0.543346
0.524195
0.504223
0.483819
0.463525
0.443844
0.425593
0.409448
0.395488
0.383592
0.37376
0.36607
0.36057
0.357114
0.355364
0.354916
0.35543
0.356645
0.358404
0.360859
0.364401
0.369023
0.373377
0.376391
0.379243
0.514278
0.495737
0.476709
0.45768
0.439201
0.421791
0.406194
0.392867
0.381675
0.372419
0.365034
0.359531
0.35589
0.353929
0.353338
0.353797
0.355063
0.35696
0.359444
0.362936
0.367989
0.374232
0.379572
0.383152
0.386873
0.485701
0.468326
0.450811
0.433674
0.417431
0.402586
0.389765
0.379184
0.370528
0.363583
0.358273
0.354592
0.352478
0.35174
0.352121
0.353394
0.35541
0.358076
0.361543
0.366522
0.37369
0.382006
0.388511
0.392861
0.397706
0.458774
0.442956
0.427323
0.412381
0.398583
0.386399
0.376294
0.368243
0.361812
0.356824
0.353228
0.351038
0.350173
0.350453
0.351687
0.353766
0.356625
0.360251
0.365162
0.372305
0.382286
0.393021
0.400841
0.406178
0.412343
0.434255
0.420243
0.406693
0.39408
0.382775
0.373206
0.365628
0.359801
0.355247
0.351864
0.349657
0.348682
0.348848
0.350014
0.352075
0.355041
0.358912
0.363866
0.370873
0.381235
0.394758
0.408047
0.417309
0.423977
0.431862
0.412472
0.400391
0.388994
0.378716
0.369843
0.362743
0.357422
0.353474
0.35045
0.348356
0.347283
0.347319
0.348388
0.350411
0.353388
0.357447
0.362644
0.369611
0.37969
0.394523
0.412437
0.428622
0.439457
0.44581
0.451422
0.393798
0.383685
0.374426
0.366412
0.359843
0.355018
0.351643
0.349218
0.347389
0.346299
0.346154
0.347055
0.348956
0.351867
0.355924
0.361355
0.368442
0.378373
0.393094
0.413832
0.436813
0.450037
0.457776
0.462758
0.46747
0.377498
0.369283
0.362042
0.356115
0.351621
0.348777
0.346989
0.345742
0.344834
0.344573
0.345299
0.347107
0.349976
0.353994
0.359545
0.366913
0.37696
0.391273
0.412414
0.438755
0.457334
0.468836
0.475389
0.479743
0.483437
0.36533
0.359007
0.353791
0.349967
0.347571
0.346668
0.3464
0.346224
0.346126
0.346602
0.348144
0.350852
0.354725
0.360005
0.367257
0.377235
0.391283
0.411987
0.439113
0.461681
0.47974
0.491326
0.497346
0.500315
0.501055
0.352573
0.347814
0.344125
0.341654
0.340446
0.3404
0.340599
0.34055
0.340452
0.341149
0.343187
0.346625
0.351523
0.358329
0.367767
0.381186
0.400743
0.428326
0.45437
0.477111
0.495682
0.506769
0.511035
0.510528
0.509504
0.34385
0.340316
0.338427
0.33835
0.33978
0.342109
0.344131
0.345404
0.346785
0.349901
0.35523
0.362478
0.371484
0.383258
0.399073
0.42134
0.446815
0.475201
0.508722
0.540689
0.561087
0.567628
0.565264
0.563748
0.580146
0.343076
0.344109
0.345582
0.347319
0.349203
0.351155
0.353217
0.355634
0.358745
0.362816
0.367969
0.37442
0.382595
0.393084
0.406437
0.422964
0.442121
0.463078
0.483954
0.501804
0.515825
0.525042
0.526727
0.529287
0.536085
0.954029
0.9911
0.997402
0.996513
0.995927
0.995699
0.995423
0.995009
0.994461
0.993771
0.99292
0.991885
0.990646
0.98918
0.987463
0.985464
0.983145
0.980459
0.977353
0.973763
0.969619
0.964846
0.959362
0.953084
0.945932
0.937825
0.928694
0.918476
0.907123
0.894603
0.880905
0.866038
0.850037
0.832962
0.814896
0.795945
0.776241
0.755929
0.735175
0.714153
0.693042
0.672025
0.651279
0.630978
0.611283
0.592339
0.574284
0.557234
0.541287
0.526527
0.513018
0.500807
0.489918
0.480359
0.4721
0.465097
0.45927
0.454522
0.450733
0.447756
0.44543
0.44356
0.441932
0.440322
0.438504
0.436277
0.433498
0.430108
0.426147
0.421748
0.417056
0.412191
0.408113
0.405483
0.405862
0.41301
0.432021
0.464188
0.503519
0.542176
0.575472
0.597591
0.604924
0.599841
0.588132
0.574828
0.563015
0.553947
0.547657
0.544058
0.543315
0.54463
0.54706
0.549913
0.552358
0.553875
0.553964
0.551463
0.54506
0.950311
0.986722
0.996916
0.997059
0.996304
0.996025
0.995859
0.995613
0.995269
0.994836
0.994309
0.993674
0.992918
0.992031
0.991006
0.989836
0.988512
0.987024
0.985358
0.983498
0.981422
0.979105
0.976515
0.973615
0.97036
0.966705
0.962593
0.957965
0.952752
0.946885
0.940288
0.932885
0.924597
0.915355
0.905095
0.893767
0.881338
0.867792
0.853145
0.837439
0.820751
0.803187
0.784879
0.765986
0.746683
0.72717
0.707656
0.688365
0.669513
0.651333
0.634039
0.617834
0.602921
0.589479
0.577634
0.567472
0.55901
0.552225
0.547028
0.543264
0.540726
0.539103
0.53801
0.536939
0.535303
0.532399
0.527503
0.519954
0.509221
0.495377
0.478113
0.458155
0.438368
0.417331
0.387527
0.345209
0.307491
0.305338
0.353407
0.428891
0.533491
0.658477
0.76875
0.838858
0.865253
0.860112
0.838616
0.813059
0.78866
0.766786
0.752757
0.745862
0.740316
0.731751
0.717049
0.694116
0.6668
0.638127
0.608943
0.951449
0.985768
0.996487
0.997213
0.996503
0.996162
0.995992
0.995776
0.995469
0.995076
0.994597
0.994023
0.993338
0.99253
0.991588
0.990501
0.98926
0.987851
0.986256
0.984456
0.982428
0.980144
0.977574
0.974682
0.971425
0.967761
0.963641
0.959014
0.953823
0.94801
0.941513
0.934271
0.926222
0.917304
0.907461
0.896644
0.884818
0.87196
0.858064
0.843154
0.827281
0.810532
0.793025
0.774904
0.756333
0.737501
0.718614
0.699896
0.681578
0.663896
0.647089
0.631399
0.617048
0.604241
0.593133
0.583793
0.576232
0.570397
0.566161
0.563314
0.561577
0.560534
0.559685
0.558369
0.555848
0.551261
0.543784
0.532739
0.51758
0.498998
0.476665
0.454799
0.434607
0.41653
0.392892
0.357076
0.322519
0.310701
0.332362
0.388622
0.456774
0.559657
0.677157
0.763317
0.793088
0.783951
0.757526
0.729698
0.706671
0.687866
0.675878
0.670531
0.665797
0.656565
0.638889
0.611445
0.579314
0.546804
0.518983
0.952763
0.984857
0.996142
0.997359
0.996716
0.996344
0.996179
0.996005
0.995751
0.995419
0.995014
0.994529
0.993951
0.993268
0.992469
0.991544
0.990487
0.989285
0.987927
0.986395
0.984671
0.98273
0.980547
0.978089
0.975318
0.972192
0.968664
0.964683
0.960192
0.955129
0.949429
0.943025
0.935849
0.927833
0.918912
0.909028
0.898136
0.886203
0.873213
0.859178
0.84414
0.828177
0.811401
0.793955
0.776008
0.757753
0.739401
0.721185
0.70335
0.68615
0.669845
0.654695
0.640955
0.628856
0.618552
0.610102
0.603492
0.598625
0.595325
0.593292
0.59215
0.591338
0.59019
0.587826
0.583289
0.575511
0.56352
0.546635
0.524362
0.499057
0.472572
0.447591
0.425237
0.405682
0.381159
0.345104
0.312972
0.300905
0.316624
0.362476
0.429891
0.522487
0.648255
0.751426
0.790971
0.785436
0.758576
0.728828
0.704623
0.685156
0.671853
0.665228
0.657659
0.642591
0.6155
0.578848
0.54054
0.509524
0.501255
0.954706
0.984531
0.995891
0.997441
0.996884
0.996499
0.996331
0.996177
0.995955
0.99566
0.995297
0.994863
0.994346
0.993734
0.993015
0.99218
0.99122
0.990126
0.988884
0.987481
0.985898
0.984112
0.982099
0.979827
0.977263
0.974365
0.971089
0.967386
0.963201
0.958475
0.953146
0.947149
0.940416
0.932883
0.924486
0.915169
0.904885
0.8936
0.881298
0.867984
0.853699
0.838516
0.822543
0.805917
0.788805
0.7714
0.753909
0.736567
0.719624
0.70334
0.687987
0.673843
0.661183
0.650251
0.641188
0.634029
0.628715
0.625092
0.622911
0.621755
0.621106
0.62022
0.618217
0.613971
0.606286
0.593908
0.57577
0.55122
0.523154
0.493625
0.464496
0.438079
0.415671
0.396485
0.373181
0.339327
0.310371
0.298913
0.30452
0.337196
0.397937
0.472056
0.590044
0.709693
0.763322
0.763337
0.736892
0.70572
0.680557
0.660213
0.644789
0.635298
0.622804
0.600079
0.565087
0.526465
0.498382
0.488939
0.486065
0.956836
0.984426
0.995737
0.997503
0.997027
0.996644
0.996477
0.996339
0.996142
0.995876
0.995548
0.995155
0.994687
0.994132
0.993478
0.992716
0.991837
0.990832
0.989689
0.988396
0.986935
0.985285
0.983423
0.98132
0.978944
0.976256
0.973214
0.969771
0.965875
0.96147
0.956495
0.950888
0.944586
0.937524
0.929642
0.920885
0.911209
0.900578
0.888974
0.876404
0.862903
0.848542
0.833423
0.817682
0.801483
0.785011
0.768478
0.752117
0.736182
0.72094
0.706676
0.693683
0.682253
0.672634
0.664944
0.659167
0.655191
0.652779
0.651579
0.65102
0.650402
0.648735
0.644875
0.637417
0.624915
0.605966
0.579438
0.549005
0.516413
0.483807
0.453606
0.426587
0.404531
0.386072
0.364033
0.33258
0.306953
0.297505
0.298144
0.320339
0.366517
0.435056
0.534169
0.661947
0.733171
0.74097
0.715881
0.68279
0.654662
0.631859
0.614337
0.601496
0.583085
0.553618
0.518807
0.496387
0.484975
0.478386
0.472607
0.959102
0.984559
0.99566
0.997553
0.997147
0.996776
0.996612
0.996486
0.996307
0.996064
0.995763
0.995402
0.994972
0.99446
0.993857
0.993152
0.992336
0.9914
0.990336
0.989129
0.987764
0.986222
0.984481
0.982513
0.980288
0.97777
0.974919
0.971691
0.968037
0.963904
0.959234
0.953969
0.948048
0.941412
0.934003
0.925769
0.916667
0.906665
0.895745
0.883912
0.871199
0.857676
0.843441
0.828628
0.813395
0.797925
0.782429
0.767142
0.75232
0.738238
0.72519
0.713485
0.703426
0.695262
0.689058
0.684728
0.682083
0.680786
0.680339
0.679976
0.678756
0.675387
0.668427
0.656171
0.636936
0.60919
0.576743
0.541604
0.505916
0.472234
0.441439
0.414694
0.393442
0.376212
0.355745
0.327003
0.304469
0.296812
0.296511
0.308549
0.343091
0.404333
0.483099
0.605754
0.695481
0.712673
0.689874
0.654672
0.622977
0.597483
0.577465
0.560905
0.538827
0.512141
0.497749
0.485407
0.474546
0.465612
0.458115
0.961442
0.984852
0.995643
0.997597
0.99725
0.996896
0.996738
0.996622
0.996457
0.996233
0.995955
0.99562
0.995221
0.994746
0.994184
0.993526
0.992763
0.991887
0.990889
0.989757
0.988476
0.987029
0.985393
0.983546
0.981456
0.979092
0.976415
0.973385
0.969954
0.966074
0.96169
0.956749
0.951192
0.944963
0.938011
0.930287
0.92175
0.91237
0.90213
0.891035
0.879119
0.866448
0.853118
0.83926
0.825028
0.810604
0.796197
0.782043
0.7684
0.75555
0.7438
0.733465
0.724861
0.718216
0.713533
0.710637
0.709227
0.708832
0.708764
0.708001
0.705303
0.699031
0.687398
0.668419
0.640181
0.606363
0.569001
0.530685
0.493654
0.459509
0.428977
0.403118
0.382738
0.366842
0.348228
0.322179
0.302454
0.29633
0.295801
0.301138
0.326504
0.372586
0.442906
0.54742
0.650048
0.676954
0.65767
0.621148
0.586504
0.559003
0.538026
0.52246
0.510193
0.501375
0.490781
0.475961
0.46251
0.451805
0.442469
0.963815
0.985274
0.995669
0.997638
0.997341
0.997006
0.996856
0.996748
0.996596
0.996387
0.996127
0.995815
0.995443
0.994999
0.994472
0.993855
0.993138
0.992314
0.991375
0.990308
0.989102
0.987739
0.9862
0.984461
0.982495
0.980272
0.977757
0.97491
0.971689
0.968048
0.963937
0.959304
0.954096
0.948263
0.941754
0.934526
0.92654
0.917769
0.908198
0.897833
0.886706
0.874885
0.862463
0.849568
0.836353
0.822998
0.809711
0.796729
0.784314
0.772753
0.762361
0.75346
0.746366
0.741275
0.738094
0.736546
0.736182
0.736354
0.736118
0.734138
0.72882
0.718131
0.699931
0.671963
0.637529
0.598622
0.558021
0.518048
0.480613
0.446784
0.417
0.392149
0.372868
0.358346
0.341658
0.318175
0.30091
0.296003
0.29549
0.297393
0.315411
0.349748
0.410533
0.494115
0.595875
0.631108
0.617391
0.582059
0.546794
0.520165
0.504202
0.502195
0.502994
0.497529
0.482494
0.464567
0.448985
0.434529
0.421512
0.966025
0.985791
0.995728
0.997677
0.99742
0.997106
0.996966
0.996866
0.996724
0.996529
0.996285
0.995992
0.995643
0.995226
0.994731
0.994149
0.993473
0.992695
0.991808
0.990802
0.989664
0.988379
0.986929
0.985292
0.983443
0.981353
0.97899
0.976318
0.973297
0.969883
0.966032
0.961695
0.956824
0.95137
0.945289
0.938541
0.931091
0.922913
0.913996
0.904347
0.894
0.88302
0.871502
0.85957
0.847378
0.835103
0.822953
0.811167
0.800011
0.789776
0.78078
0.773346
0.767778
0.764221
0.762469
0.762101
0.76248
0.762718
0.761562
0.75729
0.747906
0.730965
0.703983
0.669745
0.630093
0.58786
0.54544
0.504925
0.467815
0.434628
0.405952
0.382178
0.364022
0.350747
0.335982
0.314985
0.299751
0.295772
0.295419
0.29643
0.307883
0.333289
0.378375
0.449936
0.535596
0.575752
0.569025
0.538654
0.507703
0.488759
0.488386
0.494996
0.498763
0.490068
0.471666
0.451841
0.431937
0.416006
0.405143
0.968068
0.986406
0.995816
0.997709
0.997486
0.997197
0.997069
0.996975
0.996842
0.996658
0.996429
0.996153
0.995824
0.995431
0.994964
0.994414
0.993776
0.993041
0.992203
0.991252
0.990178
0.988966
0.9876
0.986059
0.98432
0.982356
0.980138
0.977631
0.9748
0.971604
0.968002
0.963948
0.959399
0.95431
0.948641
0.942356
0.935423
0.927822
0.919541
0.91059
0.901006
0.890854
0.880227
0.869251
0.858077
0.846881
0.835875
0.825296
0.815413
0.80652
0.798931
0.792964
0.788897
0.7868
0.786331
0.786871
0.787547
0.787164
0.784088
0.776168
0.760977
0.735647
0.702398
0.662888
0.619811
0.575607
0.5325
0.492264
0.455711
0.423554
0.396049
0.373327
0.356239
0.344107
0.331181
0.312498
0.298908
0.295621
0.295392
0.295839
0.302636
0.322329
0.355702
0.413268
0.478498
0.517954
0.517673
0.497239
0.478647
0.476694
0.480933
0.488459
0.491032
0.479937
0.460027
0.437055
0.414913
0.401572
0.392746
0.969955
0.987079
0.995924
0.997738
0.997543
0.997281
0.997165
0.997077
0.996951
0.996777
0.996561
0.996301
0.995991
0.995619
0.995178
0.994658
0.994054
0.993359
0.992566
0.991668
0.990654
0.989511
0.988224
0.986774
0.985139
0.983295
0.981214
0.978866
0.976215
0.973227
0.969861
0.966078
0.961836
0.957097
0.951824
0.945983
0.939549
0.932503
0.924838
0.916565
0.907724
0.898379
0.888626
0.878591
0.868422
0.858298
0.848429
0.839054
0.830442
0.822885
0.816692
0.812157
0.809511
0.808736
0.809315
0.810368
0.810715
0.808799
0.802551
0.789354
0.766322
0.734842
0.696351
0.653345
0.608155
0.563116
0.520156
0.480444
0.444842
0.413817
0.38739
0.365707
0.349501
0.338384
0.327159
0.310612
0.298305
0.29552
0.295386
0.295534
0.299091
0.315056
0.339833
0.381586
0.434872
0.469868
0.475996
0.472614
0.46994
0.470772
0.473779
0.479303
0.480578
0.468966
0.447823
0.42032
0.401464
0.390665
0.383734
0.971696
0.987452
0.996042
0.997764
0.997593
0.997357
0.997254
0.997173
0.997053
0.996888
0.996684
0.996438
0.996145
0.995794
0.995376
0.994884
0.994312
0.993654
0.992905
0.992056
0.991099
0.990021
0.988809
0.987445
0.985909
0.984179
0.982228
0.98003
0.977551
0.97476
0.971619
0.968094
0.964146
0.95974
0.954844
0.94943
0.943474
0.936961
0.929889
0.922271
0.914148
0.905588
0.896687
0.88757
0.878387
0.869315
0.860567
0.852379
0.84502
0.838772
0.833931
0.830753
0.829398
0.829729
0.831008
0.832026
0.831227
0.826643
0.815716
0.795341
0.766386
0.72979
0.687771
0.64255
0.596373
0.551356
0.508869
0.470003
0.435441
0.405515
0.380095
0.359317
0.343802
0.333527
0.323849
0.309253
0.297913
0.295453
0.295382
0.295406
0.296962
0.310206
0.33045
0.362588
0.407022
0.444385
0.46177
0.466666
0.466211
0.464749
0.465105
0.468942
0.469664
0.457641
0.433487
0.406888
0.391201
0.382754
0.377395
0.973302
0.988061
0.996169
0.997789
0.997638
0.997429
0.997338
0.997262
0.997148
0.996992
0.996799
0.996567
0.996289
0.995957
0.995561
0.995095
0.994553
0.993931
0.993222
0.99242