/*--------------------------------*- C++ -*----------------------------------*\
  =========                 |
  \\      /  F ield         | OpenFOAM: The Open Source CFD Toolbox
   \\    /   O peration     | Website:  https://openfoam.org
    \\  /    A nd           | Version:  9
     \\/     M anipulation  |
\*---------------------------------------------------------------------------*/
FoamFile
{
    format      ascii;
    class       volScalarField;
    location    "3000";
    object      k;
}
// * * * * * * * * * * * * * * * * * * * * * * * * * * * * * * * * * * * * * //

dimensions      [0 2 -2 0 0 0 0];

internalField   nonuniform List<scalar> 
13354
(
0.000374039
0.000428552
0.000445062
0.000453579
0.000464108
0.000515123
0.000691183
0.000994155
0.00117004
0.00104779
0.000703477
0.000425447
0.000240012
0.00033461
0.000375026
0.000386142
0.000398697
0.000417455
0.000486565
0.000766618
0.00132608
0.00170823
0.00135638
0.000703047
0.000311251
0.000198943
0.000328079
0.00037413
0.000385948
0.000387871
0.000391289
0.000453111
0.000820005
0.0016501
0.00230706
0.00188854
0.000851587
0.000282191
0.00019445
0.000337284
0.000393035
0.000406138
0.000397409
0.000378741
0.000435381
0.000888845
0.00194154
0.00279329
0.00232268
0.0010447
0.000324768
0.000242023
0.000349971
0.000410219
0.000423617
0.000407985
0.000369908
0.000418021
0.000920177
0.00207434
0.00302314
0.00257796
0.00123636
0.000426517
0.000310377
0.000360711
0.000418864
0.000431719
0.000412183
0.00036253
0.000405196
0.000904861
0.00205105
0.00300908
0.0026626
0.0014032
0.000549892
0.000366908
0.000365048
0.00041917
0.00043045
0.000409061
0.000355832
0.00039573
0.000858678
0.00190621
0.00283627
0.00263033
0.0015344
0.000671958
0.000398627
0.00036111
0.000410258
0.000421931
0.000400055
0.000349198
0.000384801
0.000795628
0.00170586
0.00257993
0.00251737
0.00161032
0.000761484
0.000411214
0.000348558
0.000394173
0.000405689
0.000386413
0.000340962
0.00036918
0.00072118
0.00150596
0.00229027
0.00235186
0.00162099
0.000807998
0.000415627
0.000333046
0.000372982
0.000383501
0.000369269
0.000330065
0.000348034
0.000641689
0.00131489
0.00201302
0.00214876
0.00157255
0.000822721
0.000415831
0.00031537
0.000349078
0.000359574
0.000350213
0.000315431
0.000322794
0.000559823
0.0011329
0.00175974
0.00193684
0.00149629
0.000821465
0.000411512
0.000296577
0.000323935
0.000334435
0.000328805
0.000298209
0.000295108
0.000476556
0.000954259
0.00151971
0.00173223
0.00140649
0.000808257
0.000401108
0.000277251
0.000298796
0.00030847
0.000306089
0.000279916
0.000267319
0.00039529
0.00077966
0.00128354
0.00152595
0.00129998
0.000783001
0.00038533
0.000257821
0.000272816
0.00028182
0.00028203
0.000260832
0.000240979
0.000320882
0.000615774
0.00105274
0.00131571
0.00117668
0.000744935
0.000367477
0.000238813
0.000247167
0.000253986
0.000256991
0.000241244
0.000217484
0.000258849
0.000472405
0.000836531
0.0011038
0.00103929
0.000693846
0.00034905
0.000219481
0.000223488
0.0002265
0.000231261
0.000221369
0.00019748
0.000211704
0.000356368
0.000643822
0.000896235
0.000890912
0.00062958
0.000329188
0.000200889
0.000201829
0.000201595
0.00020581
0.000200674
0.000180247
0.000178251
0.000268658
0.000481975
0.000702518
0.000738527
0.000554417
0.000306372
0.000183051
0.000181837
0.00018042
0.000182544
0.000179634
0.000164432
0.000155133
0.000205936
0.00035359
0.00053197
0.000591405
0.000473403
0.000280563
0.000165614
0.000163806
0.000161518
0.000162138
0.000160051
0.000149545
0.000138631
0.00016303
0.000257627
0.000391409
0.000458974
0.000393446
0.000252504
0.000149151
0.000147648
0.000144417
0.000143981
0.000142626
0.000135871
0.000126007
0.000134487
0.000189685
0.000282743
0.000346486
0.000318156
0.000222289
0.000133664
0.000132513
0.000129774
0.000128319
0.000127423
0.000123495
0.000115657
0.000115529
0.000143666
0.000202658
0.000254973
0.000249738
0.00019008
0.000119537
0.000119261
0.000116147
0.000114726
0.000114284
0.000112292
0.000106645
0.000102444
0.000113205
0.000146108
0.000183891
0.000190804
0.000158674
0.000106828
0.000106701
0.000104206
0.000102959
0.000102839
0.000101927
9.80498e-05
9.24437e-05
9.32728e-05
0.000108299
0.000132517
0.00014406
0.000130679
9.56293e-05
9.58506e-05
9.36206e-05
9.24102e-05
9.24588e-05
9.22757e-05
8.94727e-05
8.40383e-05
8.0229e-05
8.46109e-05
9.84834e-05
0.000110012
0.000107252
8.59468e-05
8.60612e-05
8.41105e-05
8.30226e-05
8.2942e-05
8.2966e-05
8.12734e-05
7.6701e-05
7.15136e-05
7.05415e-05
7.74214e-05
8.65306e-05
8.83938e-05
7.7369e-05
7.73581e-05
7.56018e-05
7.44605e-05
7.43054e-05
7.44545e-05
7.34833e-05
7.02768e-05
6.542e-05
6.22655e-05
6.48088e-05
7.08799e-05
7.39289e-05
6.98649e-05
6.95988e-05
6.78614e-05
6.67469e-05
6.65898e-05
6.69606e-05
6.65198e-05
6.4381e-05
6.06168e-05
5.70884e-05
5.72103e-05
6.07901e-05
6.35739e-05
6.33598e-05
6.26509e-05
6.09344e-05
5.99249e-05
5.98944e-05
6.03873e-05
6.0345e-05
5.89766e-05
5.63083e-05
5.32208e-05
5.23308e-05
5.43905e-05
5.65601e-05
5.76008e-05
5.64871e-05
5.48771e-05
5.4035e-05
5.40852e-05
5.468e-05
5.48247e-05
5.39994e-05
5.2174e-05
4.98329e-05
4.88011e-05
5.01836e-05
5.18214e-05
5.24639e-05
5.11156e-05
4.96747e-05
4.89154e-05
4.90227e-05
4.96581e-05
4.99271e-05
4.94106e-05
4.81584e-05
4.6491e-05
4.57791e-05
4.7089e-05
4.84466e-05
4.78927e-05
4.64773e-05
4.51762e-05
4.44503e-05
4.458e-05
4.52439e-05
4.56004e-05
4.52476e-05
4.43205e-05
4.31491e-05
4.28152e-05
4.43324e-05
4.57759e-05
4.38656e-05
4.2475e-05
4.12741e-05
4.05472e-05
4.06845e-05
4.13988e-05
4.18165e-05
4.15609e-05
4.07883e-05
3.99012e-05
3.98196e-05
4.15887e-05
4.33739e-05
4.03254e-05
3.90041e-05
3.78679e-05
3.71446e-05
3.7302e-05
3.80595e-05
3.85403e-05
3.83412e-05
3.76692e-05
3.68975e-05
3.68931e-05
3.87751e-05
4.09964e-05
3.72114e-05
3.5973e-05
3.48899e-05
3.41921e-05
3.43715e-05
3.51755e-05
3.57031e-05
3.55655e-05
3.49587e-05
3.42388e-05
3.41798e-05
3.60036e-05
3.85702e-05
3.44703e-05
3.33174e-05
3.22818e-05
3.16223e-05
3.1843e-05
3.2656e-05
3.32339e-05
3.31641e-05
3.26279e-05
3.19329e-05
3.17606e-05
3.33948e-05
3.6131e-05
3.25622e-05
3.20444e-05
3.09732e-05
2.99772e-05
2.93735e-05
2.96383e-05
3.0448e-05
3.10625e-05
3.10561e-05
3.06114e-05
2.99461e-05
2.96611e-05
3.10326e-05
3.37613e-05
1.88501e-05
2.13333e-05
2.17896e-05
2.13612e-05
2.32019e-05
2.75008e-05
2.82569e-05
2.94629e-05
3.04508e-05
2.98855e-05
2.88816e-05
2.79213e-05
2.73799e-05
2.76964e-05
2.85007e-05
2.91288e-05
2.91837e-05
2.88302e-05
2.82242e-05
2.78527e-05
2.89574e-05
3.15668e-05
1.80818e-05
2.04066e-05
2.06773e-05
2.0278e-05
2.24098e-05
2.59756e-05
2.64655e-05
2.76958e-05
2.85472e-05
2.79456e-05
2.69944e-05
2.60646e-05
2.55983e-05
2.5971e-05
2.67671e-05
2.73886e-05
2.74838e-05
2.72256e-05
2.66943e-05
2.62803e-05
2.71422e-05
2.95955e-05
1.73343e-05
1.94765e-05
1.95717e-05
1.92793e-05
2.16598e-05
2.44733e-05
2.48483e-05
2.61207e-05
2.68147e-05
2.61899e-05
2.52799e-05
2.43841e-05
2.40013e-05
2.44214e-05
2.52093e-05
2.58076e-05
2.59324e-05
2.57497e-05
2.53033e-05
2.48901e-05
2.55538e-05
2.78512e-05
1.66173e-05
1.85536e-05
1.84886e-05
1.83724e-05
2.09123e-05
2.30048e-05
2.33915e-05
2.47011e-05
2.52322e-05
2.45944e-05
2.37145e-05
2.28594e-05
2.2562e-05
2.3023e-05
2.37929e-05
2.43675e-05
2.45136e-05
2.43866e-05
2.40263e-05
2.36327e-05
2.41441e-05
2.62939e-05
1.59366e-05
1.76411e-05
1.74402e-05
1.75586e-05
2.01777e-05
2.16004e-05
2.20849e-05
2.34149e-05
2.37866e-05
2.3137e-05
2.22813e-05
2.14776e-05
2.12631e-05
2.17482e-05
2.24972e-05
2.30571e-05
2.32125e-05
2.31317e-05
2.28423e-05
2.24804e-05
2.28671e-05
2.48706e-05
1.52931e-05
1.674e-05
1.64388e-05
1.68352e-05
1.94201e-05
2.02831e-05
2.09136e-05
2.22433e-05
2.24619e-05
2.18022e-05
2.09672e-05
2.02226e-05
2.00835e-05
2.05826e-05
2.13088e-05
2.18554e-05
2.20204e-05
2.19731e-05
2.17445e-05
2.14172e-05
2.16974e-05
2.35549e-05
1.30293e-05
1.46855e-05
1.58534e-05
1.54994e-05
1.6195e-05
1.86079e-05
1.90607e-05
1.98579e-05
2.11668e-05
2.12485e-05
2.05771e-05
1.97573e-05
1.90771e-05
1.90087e-05
1.9513e-05
2.02153e-05
2.07534e-05
2.09226e-05
2.09017e-05
2.0732e-05
2.0438e-05
2.06267e-05
2.23383e-05
1.24393e-05
1.41069e-05
1.49851e-05
1.46349e-05
1.56243e-05
1.77386e-05
1.79379e-05
1.88928e-05
2.017e-05
2.01372e-05
1.94476e-05
1.8641e-05
1.80289e-05
1.80247e-05
1.8527e-05
1.92086e-05
1.9734e-05
1.99089e-05
1.9914e-05
1.97981e-05
1.95444e-05
1.96529e-05
2.12329e-05
1.18875e-05
1.3544e-05
1.41389e-05
1.38542e-05
1.51023e-05
1.68277e-05
1.69112e-05
1.80038e-05
1.92461e-05
1.91165e-05
1.84026e-05
1.76083e-05
1.70638e-05
1.71159e-05
1.76136e-05
1.82758e-05
1.87859e-05
1.89719e-05
1.90021e-05
1.89446e-05
1.87335e-05
1.87737e-05
2.02489e-05
1.13775e-05
1.29846e-05
1.33206e-05
1.31609e-05
1.45955e-05
1.58954e-05
1.59769e-05
1.71868e-05
1.83878e-05
1.81763e-05
1.74324e-05
1.66497e-05
1.61727e-05
1.62704e-05
1.67619e-05
1.74073e-05
1.7909e-05
1.81063e-05
1.81667e-05
1.81658e-05
1.79929e-05
1.79835e-05
1.93826e-05
1.09102e-05
1.24221e-05
1.25386e-05
1.25528e-05
1.4076e-05
1.49679e-05
1.51347e-05
1.64367e-05
1.75894e-05
1.7305e-05
1.65282e-05
1.57599e-05
1.5346e-05
1.5481e-05
1.59694e-05
1.66039e-05
1.71e-05
1.73082e-05
1.74028e-05
1.74534e-05
1.73165e-05
1.72702e-05
1.86192e-05
1.04831e-05
1.18549e-05
1.18026e-05
1.20211e-05
1.35278e-05
1.40741e-05
1.43813e-05
1.57486e-05
1.68485e-05
1.6491e-05
1.56813e-05
1.49321e-05
1.45797e-05
1.47453e-05
1.52338e-05
1.58611e-05
1.63536e-05
1.65735e-05
1.67023e-05
1.6802e-05
1.66979e-05
1.66241e-05
1.79434e-05
1.00917e-05
1.12835e-05
1.11217e-05
1.15514e-05
1.29369e-05
1.32392e-05
1.37084e-05
1.51186e-05
1.61576e-05
1.57252e-05
1.48873e-05
1.41638e-05
1.38715e-05
1.40607e-05
1.45499e-05
1.51747e-05
1.56649e-05
1.58948e-05
1.60594e-05
1.62089e-05
1.61326e-05
1.60366e-05
1.73414e-05
9.72916e-06
1.07101e-05
1.05036e-05
1.11264e-05
1.23006e-05
1.24791e-05
1.31059e-05
1.4541e-05
1.55113e-05
1.50033e-05
1.41431e-05
1.34539e-05
1.32177e-05
1.3425e-05
1.39155e-05
1.45411e-05
1.50269e-05
1.52676e-05
1.54716e-05
1.56699e-05
1.56188e-05
1.55014e-05
1.68029e-05
9.38664e-06
1.01396e-05
9.9528e-06
1.07236e-05
1.16377e-05
1.17997e-05
1.25651e-05
1.40117e-05
1.49061e-05
1.43214e-05
1.34476e-05
1.27985e-05
1.26152e-05
1.28374e-05
1.33291e-05
1.39542e-05
1.44361e-05
1.46912e-05
1.49357e-05
1.51828e-05
1.51539e-05
1.50129e-05
1.63232e-05
9.05381e-06
9.58032e-06
9.46899e-06
1.03161e-05
1.09749e-05
1.11982e-05
1.20771e-05
1.353e-05
1.43364e-05
1.36761e-05
1.27999e-05
1.21956e-05
1.20604e-05
1.22935e-05
1.27882e-05
1.34126e-05
1.38908e-05
1.41613e-05
1.44491e-05
1.47458e-05
1.47321e-05
1.45671e-05
1.59032e-05
8.7205e-06
9.04235e-06
9.04895e-06
9.89988e-06
1.03375e-05
1.06667e-05
1.16341e-05
1.3096e-05
1.3796e-05
1.30673e-05
1.21968e-05
1.16411e-05
1.15464e-05
1.179e-05
1.22905e-05
1.29136e-05
1.33877e-05
1.36763e-05
1.4009e-05
1.43523e-05
1.43484e-05
1.41633e-05
1.5539e-05
8.37902e-06
8.53626e-06
8.68528e-06
9.47282e-06
9.74568e-06
1.01965e-05
1.12315e-05
1.27079e-05
1.32815e-05
1.24928e-05
1.16369e-05
1.113e-05
1.10684e-05
1.1323e-05
1.18337e-05
1.2456e-05
1.29249e-05
1.32322e-05
1.36103e-05
1.39981e-05
1.39978e-05
1.3799e-05
1.52332e-05
8.02548e-06
8.07238e-06
8.36676e-06
9.03056e-06
9.21074e-06
9.77804e-06
1.08686e-05
1.2363e-05
1.27908e-05
1.19521e-05
1.11168e-05
1.06567e-05
1.0622e-05
1.089e-05
1.14164e-05
1.20381e-05
1.2501e-05
1.28269e-05
1.32483e-05
1.36752e-05
1.3675e-05
1.34746e-05
1.49907e-05
7.66097e-06
7.65815e-06
8.07219e-06
8.57408e-06
8.73625e-06
9.40273e-06
1.05431e-05
1.20557e-05
1.23218e-05
1.14438e-05
1.06326e-05
1.0216e-05
1.02042e-05
1.04886e-05
1.10367e-05
1.16587e-05
1.21138e-05
1.24554e-05
1.29173e-05
1.33795e-05
1.33758e-05
1.31698e-05
1.48125e-05
7.29105e-06
7.29727e-06
7.77953e-06
8.11418e-06
8.32086e-06
9.06498e-06
1.02493e-05
1.17743e-05
1.18733e-05
1.09664e-05
1.01811e-05
9.80183e-06
9.80929e-06
1.01178e-05
1.06904e-05
1.13128e-05
1.176e-05
1.21151e-05
1.2614e-05
1.31059e-05
1.30922e-05
1.28988e-05
1.46862e-05
6.92517e-06
6.98932e-06
7.4829e-06
7.66631e-06
7.95929e-06
8.76081e-06
9.98204e-06
1.15047e-05
1.14438e-05
1.05176e-05
9.7593e-06
9.41148e-06
9.4368e-06
9.77509e-06
1.03744e-05
1.09971e-05
1.14358e-05
1.18035e-05
1.23369e-05
1.28503e-05
1.28279e-05
1.26497e-05
1.46154e-05
6.21992e-06
6.57416e-06
6.72957e-06
7.18531e-06
7.2464e-06
7.64562e-06
8.49015e-06
9.74018e-06
1.12349e-05
1.10319e-05
1.00954e-05
9.3645e-06
9.04423e-06
9.08809e-06
9.4597e-06
1.00855e-05
1.07064e-05
1.11384e-05
1.15206e-05
1.20811e-05
1.26163e-05
1.25797e-05
1.24433e-05
1.45761e-05
6.00034e-06
6.24837e-06
6.51031e-06
6.88259e-06
6.86727e-06
7.37548e-06
8.25513e-06
9.5249e-06
1.09616e-05
1.06363e-05
9.69831e-06
8.99655e-06
8.70011e-06
8.76347e-06
9.17075e-06
9.82059e-06
1.04381e-05
1.0866e-05
1.12656e-05
1.18561e-05
1.23958e-05
1.23425e-05
1.22664e-05
1.45791e-05
5.10742e-06
5.77274e-06
5.95619e-06
6.30054e-06
6.56509e-06
6.5355e-06
7.14567e-06
8.06055e-06
9.33784e-06
1.06903e-05
1.02598e-05
9.3252e-06
8.65523e-06
8.38026e-06
8.46586e-06
8.90847e-06
9.57815e-06
1.01911e-05
1.0618e-05
1.10402e-05
1.16505e-05
1.21936e-05
1.21154e-05
1.21385e-05
1.45696e-05
4.95201e-06
5.53803e-06
5.70298e-06
6.08902e-06
6.23888e-06
6.25358e-06
6.9535e-06
7.90935e-06
9.18062e-06
1.04303e-05
9.90482e-06
8.97781e-06
8.34157e-06
8.08674e-06
8.19655e-06
8.67331e-06
9.35884e-06
9.96646e-06
1.03955e-05
1.08318e-05
1.14732e-05
1.20133e-05
1.19119e-05
1.20534e-05
1.44766e-05
4.8087e-06
5.29976e-06
5.48993e-06
5.87977e-06
5.91863e-06
6.02064e-06
6.79722e-06
7.79804e-06
9.05133e-06
1.01869e-05
9.57304e-06
8.65767e-06
8.05566e-06
7.81985e-06
7.9563e-06
8.46568e-06
9.16292e-06
9.76525e-06
1.01967e-05
1.06544e-05
1.13224e-05
1.18634e-05
1.1737e-05
1.20235e-05
1.43863e-05
4.66994e-06
5.06544e-06
5.31536e-06
5.67358e-06
5.61843e-06
5.83359e-06
6.67359e-06
7.71456e-06
8.94181e-06
9.95194e-06
9.26077e-06
8.36513e-06
7.79663e-06
7.57824e-06
7.74369e-06
8.28522e-06
8.99146e-06
9.58907e-06
1.00235e-05
1.05013e-05
1.12122e-05
1.17486e-05
1.15959e-05
1.20549e-05
1.43297e-05
4.5294e-06
4.84412e-06
5.1672e-06
5.46408e-06
5.34962e-06
5.68832e-06
6.57827e-06
7.64506e-06
8.84122e-06
9.71063e-06
8.96111e-06
8.09816e-06
7.56203e-06
7.36049e-06
7.55782e-06
8.13075e-06
8.84459e-06
9.43959e-06
9.87381e-06
1.03913e-05
1.1138e-05
1.1646e-05
1.14985e-05
1.21444e-05
1.43337e-05
4.38411e-06
4.64472e-06
5.02301e-06
5.24631e-06
5.11752e-06
5.58066e-06
6.50712e-06
7.58115e-06
8.74524e-06
9.45516e-06
8.67123e-06
7.85493e-06
7.34814e-06
7.16403e-06
7.39628e-06
8.00148e-06
8.72399e-06
9.31944e-06
9.76358e-06
1.0316e-05
1.10906e-05
1.15722e-05
1.14419e-05
1.23086e-05
1.43862e-05
4.23346e-06
4.47386e-06
4.8793e-06
5.02226e-06
4.92637e-06
5.50604e-06
6.45658e-06
7.51827e-06
8.65035e-06
9.19214e-06
8.39414e-06
7.63319e-06
7.15169e-06
6.98723e-06
7.25897e-06
7.89776e-06
8.63111e-06
9.22227e-06
9.67486e-06
1.02748e-05
1.10843e-05
1.15266e-05
1.14452e-05
1.25254e-05
1.44938e-05
4.07863e-06
4.33413e-06
4.74242e-06
4.79778e-06
4.77768e-06
5.46014e-06
6.4255e-06
7.45472e-06
8.55093e-06
8.93162e-06
8.13608e-06
7.43166e-06
6.97137e-06
6.83115e-06
7.14728e-06
7.82163e-06
8.5691e-06
9.15322e-06
9.62356e-06
1.02732e-05
1.11199e-05
1.15275e-05
1.14997e-05
1.27794e-05
1.46809e-05
3.92422e-06
4.22577e-06
4.61076e-06
4.58176e-06
4.66799e-06
5.43879e-06
6.41452e-06
7.39336e-06
8.44402e-06
8.6817e-06
7.90167e-06
7.24923e-06
6.80752e-06
6.69771e-06
7.06413e-06
7.77694e-06
8.54299e-06
9.12015e-06
9.61154e-06
1.03212e-05
1.12094e-05
1.1559e-05
1.16254e-05
1.30763e-05
1.49169e-05
3.77771e-06
4.12512e-06
4.47986e-06
4.38564e-06
4.59268e-06
5.43715e-06
6.41854e-06
7.33833e-06
8.33231e-06
8.44818e-06
7.69414e-06
7.08544e-06
6.66139e-06
6.59025e-06
7.01263e-06
7.76714e-06
8.54887e-06
9.12661e-06
9.65061e-06
1.04262e-05
1.13315e-05
1.16348e-05
1.18239e-05
1.33827e-05
1.51586e-05
3.64734e-06
4.02307e-06
4.34413e-06
4.21699e-06
4.54874e-06
5.44911e-06
6.42454e-06
7.29074e-06
8.22116e-06
8.2341e-06
7.5128e-06
6.9404e-06
6.53597e-06
6.51165e-06
6.99498e-06
7.79448e-06
8.58982e-06
9.17635e-06
9.74152e-06
1.05743e-05
1.14815e-05
1.17552e-05
1.20956e-05
1.37272e-05
1.54155e-05
3.54013e-06
3.92718e-06
4.19535e-06
4.0783e-06
4.53205e-06
5.46805e-06
6.41938e-06
7.25278e-06
8.11738e-06
8.03778e-06
7.35569e-06
6.81456e-06
6.43381e-06
6.46466e-06
7.01245e-06
7.85873e-06
8.65608e-06
9.26657e-06
9.87428e-06
1.07635e-05
1.16563e-05
1.19225e-05
1.24604e-05
1.41255e-05
1.57176e-05
3.46058e-06
3.83724e-06
4.03594e-06
3.96842e-06
4.5386e-06
5.48814e-06
6.39882e-06
7.22803e-06
8.02657e-06
7.85746e-06
7.2194e-06
6.70783e-06
6.3564e-06
6.44852e-06
7.06347e-06
7.95936e-06
8.7565e-06
9.38164e-06
1.00432e-05
1.09776e-05
1.18601e-05
1.21574e-05
1.28981e-05
1.45824e-05
1.60727e-05
3.40024e-06
3.7538e-06
3.87455e-06
3.8894e-06
4.5648e-06
5.50733e-06
6.36849e-06
7.21841e-06
7.95097e-06
7.69303e-06
7.10284e-06
6.62039e-06
6.30377e-06
6.46238e-06
7.14537e-06
8.07909e-06
8.87749e-06
9.53176e-06
1.02431e-05
1.12331e-05
1.20977e-05
1.24443e-05
1.34178e-05
1.51168e-05
1.64875e-05
3.33639e-06
3.6697e-06
3.71893e-06
3.84322e-06
4.60757e-06
5.52993e-06
6.34237e-06
7.22526e-06
7.89186e-06
7.54861e-06
7.00536e-06
6.55152e-06
6.27529e-06
6.50357e-06
7.25558e-06
8.21598e-06
9.02634e-06
9.70652e-06
1.04921e-05
1.15236e-05
1.23558e-05
1.28053e-05
1.39928e-05
1.57397e-05
1.69691e-05
3.26748e-06
3.58107e-06
3.57716e-06
3.82736e-06
4.66193e-06
5.56028e-06
6.33394e-06
7.25211e-06
7.85314e-06
7.43013e-06
6.92869e-06
6.50161e-06
6.27035e-06
6.57162e-06
7.39293e-06
8.36587e-06
9.18477e-06
9.91965e-06
1.07744e-05
1.18447e-05
1.26619e-05
1.32463e-05
1.46241e-05
1.64406e-05
1.7543e-05
3.19785e-06
3.48078e-06
3.45951e-06
3.8399e-06
4.72251e-06
5.59469e-06
6.34913e-06
7.29866e-06
7.83189e-06
7.34198e-06
6.87384e-06
6.47113e-06
6.29021e-06
6.66634e-06
7.55295e-06
8.52665e-06
9.37078e-06
1.01531e-05
1.1098e-05
1.22134e-05
1.30152e-05
1.37702e-05
1.5341e-05
1.72127e-05
1.81853e-05
3.13094e-06
3.36838e-06
3.37461e-06
3.88289e-06
4.78502e-06
5.62589e-06
6.38756e-06
7.35861e-06
7.81874e-06
7.28412e-06
6.84265e-06
6.46294e-06
6.33744e-06
6.79162e-06
7.72864e-06
8.70523e-06
9.57746e-06
1.04302e-05
1.14672e-05
1.26034e-05
1.34339e-05
1.44083e-05
1.61447e-05
1.80222e-05
1.8855e-05
3.06472e-06
3.25357e-06
3.32454e-06
3.95433e-06
4.8502e-06
5.65413e-06
6.45288e-06
7.42488e-06
7.80556e-06
7.25526e-06
6.83616e-06
6.4801e-06
6.41736e-06
6.95329e-06
7.92291e-06
8.90967e-06
9.8257e-06
1.07565e-05
1.18738e-05
1.30457e-05
1.3954e-05
1.51574e-05
1.7017e-05
1.88742e-05
1.95843e-05
3.00404e-06
3.14728e-06
3.31025e-06
4.0425e-06
4.92113e-06
5.68898e-06
6.54937e-06
7.49952e-06
7.79544e-06
7.25295e-06
6.855e-06
6.52698e-06
6.53426e-06
7.15846e-06
8.15661e-06
9.14902e-06
1.01092e-05
1.11241e-05
1.2335e-05
1.35528e-05
1.45634e-05
1.59891e-05
1.80034e-05
1.97368e-05
2.04128e-05
2.94699e-06
3.06127e-06
3.33391e-06
4.13679e-06
5.00179e-06
5.74446e-06
6.6795e-06
7.58975e-06
7.79904e-06
7.27892e-06
6.90116e-06
6.60732e-06
6.694e-06
7.40735e-06
8.42057e-06
9.43858e-06
1.04466e-05
1.15656e-05
1.28532e-05
1.41204e-05
1.5301e-05
1.69717e-05
1.91458e-05
2.07048e-05
2.139e-05
2.8935e-06
2.99928e-06
3.39586e-06
4.23505e-06
5.09904e-06
5.83337e-06
6.84404e-06
7.7011e-06
7.8296e-06
7.33351e-06
6.97604e-06
6.72609e-06
6.90166e-06
7.69526e-06
8.73641e-06
9.77704e-06
1.08617e-05
1.20689e-05
1.34455e-05
1.47844e-05
1.61789e-05
1.81274e-05
2.04471e-05
2.18283e-05
2.24464e-05
2.84081e-06
2.96604e-06
3.49198e-06
4.33811e-06
5.21405e-06
5.96353e-06
7.04688e-06
7.83596e-06
7.89165e-06
7.41922e-06
7.08265e-06
6.88669e-06
7.16285e-06
8.01921e-06
9.09219e-06
1.01868e-05
1.13413e-05
1.26562e-05
1.41298e-05
1.55641e-05
1.71835e-05
1.94247e-05
2.18942e-05
2.3143e-05
2.36906e-05
2.79051e-06
2.9672e-06
3.61532e-06
4.4526e-06
5.34138e-06
6.13667e-06
7.2822e-06
7.99895e-06
7.98455e-06
7.53451e-06
7.22225e-06
7.09426e-06
7.48447e-06
8.39639e-06
9.50859e-06
1.06516e-05
1.19078e-05
1.33347e-05
1.48906e-05
1.64586e-05
1.83483e-05
2.08946e-05
2.34734e-05
2.46388e-05
2.51629e-05
2.74598e-06
3.00444e-06
3.75039e-06
4.58029e-06
5.48045e-06
6.35324e-06
7.53931e-06
8.18834e-06
8.10751e-06
7.68129e-06
7.39959e-06
7.35161e-06
7.86611e-06
8.82173e-06
9.97811e-06
1.11955e-05
1.25639e-05
1.40903e-05
1.57516e-05
1.75005e-05
1.97111e-05
2.25525e-05
2.51536e-05
2.62065e-05
2.68455e-05
2.71854e-06
3.07968e-06
3.88713e-06
4.72097e-06
5.64518e-06
6.61527e-06
7.81314e-06
8.40742e-06
8.26631e-06
7.85822e-06
7.61589e-06
7.66283e-06
8.29383e-06
9.30578e-06
1.05114e-05
1.18221e-05
1.33035e-05
1.49441e-05
1.67323e-05
1.87328e-05
2.13119e-05
2.44109e-05
2.69292e-05
2.78942e-05
2.86597e-05
2.71635e-06
3.19663e-06
4.02921e-06
4.88826e-06
5.8433e-06
6.91897e-06
8.10758e-06
8.66687e-06
8.45345e-06
8.06486e-06
7.87745e-06
8.03437e-06
8.76559e-06
9.84034e-06
1.11193e-05
1.25287e-05
1.41469e-05
1.59045e-05
1.7825e-05
2.01629e-05
2.31478e-05
2.64877e-05
2.88723e-05
2.97855e-05
3.07108e-05
2.73944e-06
3.34561e-06
4.18502e-06
5.09265e-06
6.08858e-06
7.26037e-06
8.42252e-06
8.95736e-06
8.66402e-06
8.30947e-06
8.18602e-06
8.47408e-06
9.30268e-06
1.04482e-05
1.17935e-05
1.33393e-05
1.50875e-05
1.69736e-05
1.90844e-05
2.18093e-05
2.52367e-05
2.87776e-05
3.10323e-05
3.19277e-05
3.30328e-05
2.79164e-06
3.51617e-06
4.36142e-06
5.34677e-06
6.38444e-06
7.64249e-06
8.76373e-06
9.24467e-06
8.9101e-06
8.59717e-06
8.55023e-06
8.99396e-06
9.90088e-06
1.11154e-05
1.25646e-05
1.42413e-05
1.61323e-05
1.82039e-05
2.05785e-05
2.37221e-05
2.75898e-05
3.13054e-05
3.34411e-05
3.43407e-05
3.56334e-05
2.88115e-06
3.70477e-06
4.55426e-06
5.64213e-06
6.74187e-06
8.07985e-06
9.13857e-06
9.52703e-06
9.18075e-06
8.93546e-06
8.97754e-06
9.56807e-06
1.05775e-05
1.18703e-05
1.34238e-05
1.52519e-05
1.73177e-05
1.95827e-05
2.23388e-05
2.59295e-05
3.02009e-05
3.40085e-05
3.60294e-05
3.70041e-05
3.84675e-05
3.00615e-06
3.89361e-06
4.76101e-06
5.96655e-06
7.15871e-06
8.57426e-06
9.54391e-06
9.81014e-06
9.49259e-06
9.32648e-06
9.47508e-06
1.02032e-05
1.13202e-05
1.27148e-05
1.4384e-05
1.63979e-05
1.86583e-05
2.11424e-05
2.43777e-05
2.84451e-05
3.30184e-05
3.67871e-05
3.87251e-05
3.98176e-05
4.14372e-05
3.16553e-06
4.07935e-06
4.99259e-06
6.3299e-06
7.62876e-06
9.11929e-06
9.95641e-06
1.01353e-05
9.85305e-06
9.77217e-06
1.00613e-05
1.09327e-05
1.21335e-05
1.36428e-05
1.54708e-05
1.76693e-05
2.01057e-05
2.29247e-05
2.66332e-05
3.12861e-05
3.60364e-05
3.96536e-05
4.15562e-05
4.28019e-05
4.45856e-05
3.36083e-06
4.28554e-06
5.27395e-06
6.73439e-06
8.14527e-06
9.69808e-06
1.03916e-05
1.05056e-05
1.02717e-05
1.02827e-05
1.07475e-05
1.17188e-05
1.30204e-05
1.46564e-05
1.6664e-05
1.90693e-05
2.17141e-05
2.50031e-05
2.9227e-05
3.43901e-05
3.92695e-05
4.26741e-05
4.45485e-05
4.59165e-05
4.78297e-05
3.58554e-06
4.5202e-06
5.63274e-06
7.21707e-06
8.71933e-06
1.02946e-05
1.08625e-05
1.09334e-05
1.07602e-05
1.08679e-05
1.15179e-05
1.26142e-05
1.4018e-05
1.57819e-05
1.79871e-05
2.05845e-05
2.35713e-05
2.73535e-05
3.22302e-05
3.77816e-05
4.26855e-05
4.5839e-05
4.76489e-05
4.91166e-05
5.11358e-05
3.82286e-06
4.78129e-06
6.06862e-06
7.74474e-06
9.32185e-06
1.08062e-05
1.13037e-05
1.13602e-05
1.12533e-05
1.14788e-05
1.23123e-05
1.35473e-05
1.50726e-05
1.69392e-05
1.93578e-05
2.21732e-05
2.56168e-05
2.9937e-05
3.54162e-05
4.12023e-05
4.59558e-05
4.88677e-05
5.06169e-05
5.22147e-05
5.43374e-05
4.08964e-06
5.11311e-06
6.65777e-06
8.47332e-06
1.01624e-05
1.15002e-05
1.19854e-05
1.20562e-05
1.2046e-05
1.24461e-05
1.34464e-05
1.48097e-05
1.64521e-05
1.85183e-05
2.11113e-05
2.42985e-05
2.82047e-05
3.32939e-05
3.92591e-05
4.51856e-05
4.96898e-05
5.2393e-05
5.40933e-05
5.5768e-05
5.79213e-05
4.29708e-06
5.32414e-06
6.97303e-06
8.69275e-06
1.03273e-05
1.14224e-05
1.18322e-05
1.18637e-05
1.1897e-05
1.24462e-05
1.35808e-05
1.50165e-05
1.67071e-05
1.88839e-05
2.16057e-05
2.50549e-05
2.93922e-05
3.48691e-05
4.10234e-05
4.66749e-05
5.07743e-05
5.33096e-05
5.51296e-05
5.6961e-05
5.91541e-05
4.68905e-06
6.15144e-06
8.73744e-06
1.13391e-05
1.317e-05
1.41318e-05
1.45493e-05
1.47901e-05
1.52887e-05
1.64275e-05
1.78593e-05
1.94036e-05
2.11643e-05
2.35539e-05
2.66554e-05
3.07808e-05
3.61982e-05
4.30198e-05
5.01134e-05
5.58684e-05
5.95032e-05
6.15785e-05
6.30739e-05
6.46097e-05
6.65907e-05
4.99988e-06
5.62651e-06
6.27243e-06
6.82122e-06
7.28592e-06
7.74125e-06
8.29858e-06
8.99372e-06
9.88057e-06
1.1007e-05
1.23593e-05
1.39951e-05
1.60543e-05
1.86109e-05
2.17028e-05
2.53685e-05
2.95557e-05
3.40002e-05
3.82452e-05
4.19408e-05
4.51371e-05
4.80569e-05
5.07071e-05
5.30006e-05
5.52274e-05
3.02335e-05
2.85395e-06
2.38776e-07
4.43495e-07
4.38589e-07
4.44093e-07
4.47999e-07
4.51173e-07
4.53806e-07
4.56045e-07
4.58018e-07
4.59825e-07
4.61546e-07
4.6324e-07
4.6496e-07
4.66762e-07
4.68708e-07
4.70864e-07
4.73296e-07
4.76072e-07
4.79254e-07
4.82902e-07
4.87062e-07
4.9177e-07
4.97054e-07
5.02929e-07
5.09401e-07
5.16467e-07
5.24119e-07
5.32344e-07
5.41108e-07
5.50368e-07
5.6007e-07
5.70129e-07
5.80418e-07
5.90769e-07
6.01002e-07
6.1095e-07
6.20441e-07
6.29273e-07
6.37214e-07
6.44056e-07
6.49592e-07
6.53536e-07
6.55511e-07
6.55208e-07
6.52487e-07
6.47449e-07
6.40437e-07
6.31865e-07
6.22159e-07
6.11818e-07
6.01461e-07
5.91813e-07
5.8358e-07
5.77453e-07
5.74224e-07
5.75237e-07
5.82889e-07
6.00897e-07
6.34808e-07
6.92787e-07
7.85855e-07
9.26176e-07
1.12293e-06
1.37877e-06
1.69543e-06
2.09563e-06
2.65433e-06
3.51082e-06
4.82767e-06
6.72781e-06
9.32677e-06
1.28027e-05
1.74119e-05
2.33694e-05
3.05891e-05
3.82629e-05
4.41768e-05
4.78102e-05
4.98401e-05
5.09212e-05
5.14056e-05
5.12398e-05
5.08937e-05
5.07979e-05
5.11526e-05
5.19499e-05
5.29999e-05
5.41085e-05
5.52558e-05
5.63571e-05
5.73347e-05
5.81518e-05
5.87025e-05
5.90345e-05
5.91063e-05
5.86933e-05
5.73745e-05
3.67561e-05
6.64041e-06
2.96683e-07
4.61089e-07
4.61122e-07
4.63875e-07
4.66452e-07
4.68271e-07
4.69552e-07
4.70405e-07
4.7091e-07
4.71136e-07
4.71153e-07
4.70998e-07
4.70687e-07
4.70227e-07
4.69636e-07
4.68933e-07
4.6813e-07
4.6725e-07
4.66323e-07
4.65383e-07
4.64461e-07
4.63571e-07
4.62741e-07
4.62006e-07
4.61426e-07
4.61062e-07
4.60976e-07
4.61242e-07
4.61936e-07
4.6314e-07
4.64942e-07
4.67428e-07
4.70694e-07
4.7486e-07
4.80049e-07
4.86412e-07
4.94101e-07
5.03254e-07
5.13918e-07
5.25972e-07
5.39167e-07
5.53338e-07
5.68502e-07
5.84353e-07
6.00078e-07
6.14162e-07
6.25233e-07
6.32333e-07
6.34651e-07
6.31403e-07
6.2218e-07
6.07378e-07
5.88697e-07
5.68931e-07
5.50478e-07
5.33366e-07
5.1616e-07
4.97582e-07
4.76123e-07
4.50103e-07
4.18213e-07
3.78476e-07
3.28263e-07
2.66422e-07
1.96404e-07
1.25249e-07
5.64255e-08
1.15416e-08
1.72459e-08
3.56585e-08
1.453e-08
5.77414e-08
1.77574e-08
2.84314e-07
2.72525e-06
1.55843e-05
3.25251e-05
4.73352e-05
6.00167e-05
6.98209e-05
7.75793e-05
8.1132e-05
8.06942e-05
7.87271e-05
7.68142e-05
7.57688e-05
7.55656e-05
7.56214e-05
7.62891e-05
7.74342e-05
7.84583e-05
7.89134e-05
7.8458e-05
7.67643e-05
7.4306e-05
7.15701e-05
6.90152e-05
4.2612e-05
6.88199e-06
3.4462e-07
4.79858e-07
4.79529e-07
4.81133e-07
4.83112e-07
4.84568e-07
4.85557e-07
4.8621e-07
4.86597e-07
4.86771e-07
4.86797e-07
4.86724e-07
4.86577e-07
4.86366e-07
4.86112e-07
4.8584e-07
4.85566e-07
4.85311e-07
4.85098e-07
4.84959e-07
4.84932e-07
4.85044e-07
4.85309e-07
4.8573e-07
4.86327e-07
4.8713e-07
4.88167e-07
4.89478e-07
4.91104e-07
4.93095e-07
4.9551e-07
4.98409e-07
5.01846e-07
5.05884e-07
5.10596e-07
5.16072e-07
5.22413e-07
5.29751e-07
5.38233e-07
5.47945e-07
5.58711e-07
5.70024e-07
5.81988e-07
5.95167e-07
6.09928e-07
6.25815e-07
6.41008e-07
6.54115e-07
6.63946e-07
6.69499e-07
6.69723e-07
6.63482e-07
6.50319e-07
6.31972e-07
6.1275e-07
5.95985e-07
5.81383e-07
5.6816e-07
5.56013e-07
5.44501e-07
5.34289e-07
5.27237e-07
5.24646e-07
5.2674e-07
5.34146e-07
5.51243e-07
5.92245e-07
6.70591e-07
7.58838e-07
8.11073e-07
8.39899e-07
9.49754e-07
1.31618e-06
2.3061e-06
4.92025e-06
1.15567e-05
2.44132e-05
3.8181e-05
5.15074e-05
6.2784e-05
7.1033e-05
7.60629e-05
7.66388e-05
7.52422e-05
7.35943e-05
7.25321e-05
7.22318e-05
7.22191e-05
7.26298e-05
7.34575e-05
7.41334e-05
7.41932e-05
7.32232e-05
7.09425e-05
6.79671e-05
6.4863e-05
6.18691e-05
4.46856e-05
5.26335e-06
4.12368e-07
5.01725e-07
5.03218e-07
5.03278e-07
5.04426e-07
5.05344e-07
5.05878e-07
5.06145e-07
5.06215e-07
5.06129e-07
5.05927e-07
5.05657e-07
5.05346e-07
5.04995e-07
5.04609e-07
5.04209e-07
5.03804e-07
5.03415e-07
5.03055e-07
5.02746e-07
5.0252e-07
5.02422e-07
5.02475e-07
5.02683e-07
5.03064e-07
5.03654e-07
5.04489e-07
5.05612e-07
5.0707e-07
5.08915e-07
5.11212e-07
5.14034e-07
5.17444e-07
5.21505e-07
5.26297e-07
5.31917e-07
5.3847e-07
5.46085e-07
5.54918e-07
5.65171e-07
5.76989e-07
5.89992e-07
6.03272e-07
6.17192e-07
6.32227e-07
6.48862e-07
6.65939e-07
6.81523e-07
6.94151e-07
7.0264e-07
7.05947e-07
7.03101e-07
6.93138e-07
6.7636e-07
6.56001e-07
6.36737e-07
6.19846e-07
6.04224e-07
5.89205e-07
5.74019e-07
5.58357e-07
5.43209e-07
5.29606e-07
5.17514e-07
5.07185e-07
5.01918e-07
5.11757e-07
5.50747e-07
6.13272e-07
6.63708e-07
6.83047e-07
7.30313e-07
9.28425e-07
1.49225e-06
3.26027e-06
8.73445e-06
2.06725e-05
3.46601e-05
4.86969e-05
6.16108e-05
7.23819e-05
7.93436e-05
8.05275e-05
7.9041e-05
7.70124e-05
7.55473e-05
7.50215e-05
7.48959e-05
7.51425e-05
7.5914e-05
7.64802e-05
7.6251e-05
7.45661e-05
7.14572e-05
6.76965e-05
6.40377e-05
6.07174e-05
4.59635e-05
7.48596e-06
4.46463e-07
5.25745e-07
5.2942e-07
5.28181e-07
5.28517e-07
5.28998e-07
5.29206e-07
5.29223e-07
5.29124e-07
5.28943e-07
5.28706e-07
5.28451e-07
5.28209e-07
5.27976e-07
5.27742e-07
5.27525e-07
5.27331e-07
5.2717e-07
5.27052e-07
5.26996e-07
5.27025e-07
5.27181e-07
5.27498e-07
5.27974e-07
5.28615e-07
5.29451e-07
5.30518e-07
5.31855e-07
5.33504e-07
5.35518e-07
5.37959e-07
5.40897e-07
5.44399e-07
5.48528e-07
5.53361e-07
5.58993e-07
5.65527e-07
5.73087e-07
5.81816e-07
5.91892e-07
6.03529e-07
6.16816e-07
6.30894e-07
6.45295e-07
6.60629e-07
6.77345e-07
6.95544e-07
7.13168e-07
7.28553e-07
7.4019e-07
7.46803e-07
7.47347e-07
7.40742e-07
7.26433e-07
7.0638e-07
6.85536e-07
6.67073e-07
6.50447e-07
6.34746e-07
6.19251e-07
6.03404e-07
5.87943e-07
5.74333e-07
5.63069e-07
5.54083e-07
5.49555e-07
5.57795e-07
5.94532e-07
6.60912e-07
7.22537e-07
7.49297e-07
7.88582e-07
9.60521e-07
1.43736e-06
2.74262e-06
6.45735e-06
1.57175e-05
2.91822e-05