/*--------------------------------*- C++ -*----------------------------------*\
  =========                 |
  \\      /  F ield         | OpenFOAM: The Open Source CFD Toolbox
   \\    /   O peration     | Website:  https://openfoam.org
    \\  /    A nd           | Version:  9
     \\/     M anipulation  |
\*---------------------------------------------------------------------------*/
FoamFile
{
    format      ascii;
    class       volScalarField;
    location    "3000";
    object      nut;
}
// * * * * * * * * * * * * * * * * * * * * * * * * * * * * * * * * * * * * * //

dimensions      [0 2 -1 0 0 0 0];

internalField   nonuniform List<scalar> 
13354
(
4.38889e-06
5.17825e-06
5.438e-06
5.53097e-06
5.65156e-06
6.22026e-06
8.17587e-06
1.1417e-05
1.28327e-05
1.06133e-05
6.17574e-06
3.02907e-06
1.43633e-06
3.89109e-06
4.45465e-06
4.64596e-06
4.79047e-06
4.99767e-06
5.76859e-06
8.91307e-06
1.50387e-05
1.83989e-05
1.32923e-05
5.86119e-06
2.10198e-06
1.19761e-06
3.83712e-06
4.48281e-06
4.69692e-06
4.72904e-06
4.72185e-06
5.39616e-06
9.63397e-06
1.90728e-05
2.51273e-05
1.8185e-05
6.94751e-06
1.9733e-06
1.30802e-06
4.03443e-06
4.81598e-06
5.07082e-06
4.97205e-06
4.67462e-06
5.28056e-06
1.07048e-05
2.30411e-05
3.12959e-05
2.3108e-05
8.8892e-06
2.49106e-06
1.87614e-06
4.34667e-06
5.1846e-06
5.46549e-06
5.29332e-06
4.73911e-06
5.24549e-06
1.14713e-05
2.55292e-05
3.55976e-05
2.75906e-05
1.16845e-05
3.68689e-06
2.74549e-06
4.66686e-06
5.48932e-06
5.78725e-06
5.57535e-06
4.85817e-06
5.32347e-06
1.1765e-05
2.64296e-05
3.77081e-05
3.12884e-05
1.50156e-05
5.41779e-06
3.64337e-06
4.92548e-06
5.72427e-06
6.02599e-06
5.78962e-06
5.00476e-06
5.48099e-06
1.17433e-05
2.59159e-05
3.80154e-05
3.39549e-05
1.85559e-05
7.57408e-06
4.38572e-06
5.09671e-06
5.85787e-06
6.17873e-06
5.92729e-06
5.16318e-06
5.63047e-06
1.1517e-05
2.45976e-05
3.70188e-05
3.53601e-05
2.16082e-05
9.61602e-06
4.97307e-06
5.15891e-06
5.89532e-06
6.20087e-06
5.99571e-06
5.30632e-06
5.71299e-06
1.10697e-05
2.30783e-05
3.50903e-05
3.55626e-05
2.3681e-05
1.12235e-05
5.51383e-06
5.15707e-06
5.82943e-06
6.11485e-06
6.00227e-06
5.41357e-06
5.6913e-06
1.04389e-05
2.14256e-05
3.28618e-05
3.47302e-05
2.47253e-05
1.24447e-05
6.02029e-06
5.10139e-06
5.7108e-06
6.00185e-06
5.9735e-06
5.44811e-06
5.57477e-06
9.65276e-06
1.96038e-05
3.05394e-05
3.33481e-05
2.51665e-05
1.3396e-05
6.4559e-06
5.01058e-06
5.55599e-06
5.86366e-06
5.90366e-06
5.42423e-06
5.37299e-06
8.68843e-06
1.74844e-05
2.7961e-05
3.16903e-05
2.5222e-05
1.40942e-05
6.75528e-06
4.89632e-06
5.37908e-06
5.68529e-06
5.78069e-06
5.3561e-06
5.12286e-06
7.58842e-06
1.50505e-05
2.49545e-05
2.96121e-05
2.47814e-05
1.45229e-05
6.9144e-06
4.75878e-06
5.15603e-06
5.4564e-06
5.59024e-06
5.2382e-06
4.85027e-06
6.46927e-06
1.24957e-05
2.15685e-05
2.70083e-05
2.37874e-05
1.46546e-05
6.99376e-06
4.60955e-06
4.90541e-06
5.15897e-06
5.32956e-06
5.06931e-06
4.58719e-06
5.47653e-06
1.00718e-05
1.80642e-05
2.39406e-05
2.22652e-05
1.44561e-05
7.03214e-06
4.43845e-06
4.65346e-06
4.81528e-06
5.00914e-06
4.8596e-06
4.35967e-06
4.69769e-06
7.97875e-06
1.46014e-05
2.04951e-05
2.01998e-05
1.38704e-05
7.003e-06
4.25559e-06
4.39998e-06
4.4819e-06
4.65609e-06
4.60082e-06
4.16342e-06
4.14726e-06
6.30693e-06
1.14441e-05
1.68802e-05
1.76736e-05
1.29116e-05
6.87168e-06
4.05533e-06
4.14311e-06
4.19229e-06
4.31538e-06
4.30421e-06
3.97478e-06
3.78304e-06
5.066e-06
8.79031e-06
1.33976e-05
1.48767e-05
1.16377e-05
6.63199e-06
3.83423e-06
3.89719e-06
3.92034e-06
4.0071e-06
4.01026e-06
3.78219e-06
3.5396e-06
4.19852e-06
6.70218e-06
1.03208e-05
1.21092e-05
1.018e-05
6.29809e-06
3.60925e-06
3.66838e-06
3.6623e-06
3.71921e-06
3.73569e-06
3.5932e-06
3.36604e-06
3.62274e-06
5.14403e-06
7.7609e-06
9.56489e-06
8.65188e-06
5.84794e-06
3.37993e-06
3.43853e-06
3.43762e-06
3.46366e-06
3.48937e-06
3.41825e-06
3.23729e-06
3.26328e-06
4.07992e-06
5.79438e-06
7.3531e-06
7.13479e-06
5.26779e-06
3.16045e-06
3.23378e-06
3.2151e-06
3.23794e-06
3.27655e-06
3.25871e-06
3.13482e-06
3.039e-06
3.36047e-06
4.36995e-06
5.52742e-06
5.70475e-06
4.63999e-06
2.95698e-06
3.02549e-06
3.01527e-06
3.03781e-06
3.08376e-06
3.09499e-06
3.01638e-06
2.87139e-06
2.90165e-06
3.37866e-06
4.15526e-06
4.50981e-06
4.02104e-06
2.77401e-06
2.8439e-06
2.83246e-06
2.84915e-06
2.8949e-06
2.92708e-06
2.87489e-06
2.72693e-06
2.61002e-06
2.7604e-06
3.23157e-06
3.60678e-06
3.47059e-06
2.61461e-06
2.67314e-06
2.66178e-06
2.67414e-06
2.70893e-06
2.73979e-06
2.72323e-06
2.59706e-06
2.43049e-06
2.40649e-06
2.65664e-06
2.97252e-06
3.00445e-06
2.46885e-06
2.51613e-06
2.50396e-06
2.50811e-06
2.53077e-06
2.56023e-06
2.55709e-06
2.47964e-06
2.32026e-06
2.21954e-06
2.3241e-06
2.5487e-06
2.63542e-06
2.33845e-06
2.37046e-06
2.3523e-06
2.35322e-06
2.37003e-06
2.39725e-06
2.40625e-06
2.35869e-06
2.24181e-06
2.12331e-06
2.14377e-06
2.28529e-06
2.37316e-06
2.22414e-06
2.23434e-06
2.21014e-06
2.20954e-06
2.22914e-06
2.25577e-06
2.27126e-06
2.24359e-06
2.16512e-06
2.06493e-06
2.04432e-06
2.13531e-06
2.20908e-06
2.12006e-06
2.10936e-06
2.08276e-06
2.0828e-06
2.10229e-06
2.1339e-06
2.14957e-06
2.13818e-06
2.0838e-06
2.0127e-06
1.98984e-06
2.05413e-06
2.11466e-06
2.02436e-06
1.99865e-06
1.97304e-06
1.97103e-06
1.9892e-06
2.02215e-06
2.04344e-06
2.03596e-06
2.00165e-06
1.95276e-06
1.94583e-06
2.01035e-06
2.0646e-06
1.9372e-06
1.90314e-06
1.87826e-06
1.87265e-06
1.88849e-06
1.9219e-06
1.94676e-06
1.94415e-06
1.91637e-06
1.88502e-06
1.8954e-06
1.97539e-06
2.03569e-06
1.85995e-06
1.8219e-06
1.79684e-06
1.78646e-06
1.79987e-06
1.83507e-06
1.862e-06
1.86248e-06
1.8374e-06
1.81383e-06
1.83517e-06
1.93408e-06
2.01477e-06
1.79258e-06
1.75312e-06
1.72687e-06
1.71217e-06
1.72428e-06
1.76149e-06
1.79089e-06
1.79277e-06
1.77034e-06
1.74703e-06
1.77041e-06
1.88148e-06
1.99317e-06
1.73459e-06
1.69511e-06
1.66737e-06
1.6496e-06
1.66108e-06
1.70107e-06
1.73263e-06
1.73636e-06
1.71553e-06
1.69091e-06
1.70885e-06
1.82304e-06
1.96454e-06
1.68539e-06
1.64672e-06
1.61747e-06
1.5975e-06
1.60986e-06
1.65134e-06
1.68575e-06
1.69188e-06
1.6729e-06
1.6466e-06
1.65621e-06
1.76515e-06
1.92685e-06
1.65075e-06
1.64396e-06
1.60647e-06
1.57544e-06
1.55452e-06
1.56849e-06
1.61118e-06
1.64812e-06
1.6567e-06
1.64075e-06
1.61341e-06
1.61551e-06
1.71295e-06
1.88321e-06
1.00471e-06
1.12879e-06
1.15505e-06
1.14146e-06
1.24015e-06
1.47018e-06
1.52015e-06
1.55654e-06
1.62262e-06
1.60926e-06
1.57278e-06
1.53979e-06
1.51861e-06
1.53521e-06
1.57925e-06
1.61771e-06
1.62883e-06
1.61625e-06
1.58999e-06
1.5861e-06
1.67001e-06
1.84043e-06
1.01198e-06
1.13413e-06
1.15348e-06
1.13957e-06
1.25874e-06
1.46217e-06
1.49575e-06
1.53591e-06
1.59922e-06
1.57999e-06
1.5441e-06
1.50893e-06
1.48865e-06
1.50865e-06
1.55401e-06
1.59297e-06
1.60571e-06
1.59729e-06
1.57354e-06
1.56558e-06
1.63646e-06
1.80325e-06
1.01918e-06
1.13795e-06
1.14966e-06
1.13984e-06
1.27909e-06
1.4509e-06
1.47493e-06
1.5214e-06
1.57932e-06
1.55535e-06
1.51959e-06
1.4824e-06
1.46403e-06
1.48747e-06
1.53416e-06
1.57263e-06
1.58674e-06
1.582e-06
1.56152e-06
1.55161e-06
1.61163e-06
1.77394e-06
1.02684e-06
1.14059e-06
1.14408e-06
1.14307e-06
1.29899e-06
1.43664e-06
1.45792e-06
1.51192e-06
1.56243e-06
1.53482e-06
1.49862e-06
1.45985e-06
1.44407e-06
1.47094e-06
1.51835e-06
1.55634e-06
1.57177e-06
1.56984e-06
1.55275e-06
1.54204e-06
1.59359e-06
1.75092e-06
1.0354e-06
1.14197e-06
1.13721e-06
1.14987e-06
1.31901e-06
1.42106e-06
1.44527e-06
1.50692e-06
1.54852e-06
1.51789e-06
1.48078e-06
1.4412e-06
1.42849e-06
1.45801e-06
1.50589e-06
1.5442e-06
1.56049e-06
1.56077e-06
1.54632e-06
1.53582e-06
1.58015e-06
1.73112e-06
1.04515e-06
1.14192e-06
1.12975e-06
1.16072e-06
1.33665e-06
1.40571e-06
1.4372e-06
1.50588e-06
1.53741e-06
1.50433e-06
1.46588e-06
1.42612e-06
1.41658e-06
1.4483e-06
1.49664e-06
1.53553e-06
1.55268e-06
1.5544e-06
1.54229e-06
1.53247e-06
1.5699e-06
1.71333e-06
9.4589e-07
1.05619e-06
1.14032e-06
1.12281e-06
1.17587e-06
1.34916e-06
1.3914e-06
1.43347e-06
1.50805e-06
1.52922e-06
1.49385e-06
1.45342e-06
1.41403e-06
1.40795e-06
1.44156e-06
1.49036e-06
1.53021e-06
1.5478e-06
1.55056e-06
1.54111e-06
1.53203e-06
1.56244e-06
1.69807e-06
9.51001e-07
1.06829e-06
1.13714e-06
1.11769e-06
1.19504e-06
1.35544e-06
1.37896e-06
1.43318e-06
1.51284e-06
1.52415e-06
1.48599e-06
1.4431e-06
1.40461e-06
1.40231e-06
1.43753e-06
1.48696e-06
1.52738e-06
1.54559e-06
1.54961e-06
1.54277e-06
1.5349e-06
1.55806e-06
1.68804e-06
9.57287e-07
1.08055e-06
1.13238e-06
1.1156e-06
1.21724e-06
1.35564e-06
1.36872e-06
1.436e-06
1.5201e-06
1.52202e-06
1.48036e-06
1.43464e-06
1.39743e-06
1.39903e-06
1.43579e-06
1.48584e-06
1.52664e-06
1.54602e-06
1.55142e-06
1.54777e-06
1.54114e-06
1.55758e-06
1.6856e-06
9.65239e-07
1.09199e-06
1.12624e-06
1.11758e-06
1.24009e-06
1.35042e-06
1.36114e-06
1.44207e-06
1.52946e-06
1.52269e-06
1.47658e-06
1.42772e-06
1.39233e-06
1.39767e-06
1.4358e-06
1.48661e-06
1.52842e-06
1.54921e-06
1.55645e-06
1.55591e-06
1.55026e-06
1.56206e-06
1.69155e-06
9.75247e-07
1.10189e-06
1.11931e-06
1.1243e-06
1.26114e-06
1.34126e-06
1.35703e-06
1.4513e-06
1.54064e-06
1.52573e-06
1.47436e-06
1.42239e-06
1.38903e-06
1.39791e-06
1.43769e-06
1.48979e-06
1.53298e-06
1.55519e-06
1.56459e-06
1.56688e-06
1.56272e-06
1.57167e-06
1.70487e-06
9.87491e-07
1.10976e-06
1.11248e-06
1.13584e-06
1.27848e-06
1.3303e-06
1.35702e-06
1.46368e-06
1.55383e-06
1.5306e-06
1.47329e-06
1.41852e-06
1.38766e-06
1.3999e-06
1.4416e-06
1.49544e-06
1.54029e-06
1.5639e-06
1.57545e-06
1.58093e-06
1.57893e-06
1.58632e-06
1.72418e-06
1.00198e-06
1.11528e-06
1.10685e-06
1.15167e-06
1.28998e-06
1.3199e-06
1.36128e-06
1.47904e-06
1.56887e-06
1.53684e-06
1.47334e-06
1.41629e-06
1.38846e-06
1.40378e-06
1.44751e-06
1.5036e-06
1.55017e-06
1.57495e-06
1.58914e-06
1.59867e-06
1.59925e-06
1.60532e-06
1.74849e-06
1.01845e-06
1.11818e-06
1.10366e-06
1.17074e-06
1.29434e-06
1.31204e-06
1.36962e-06
1.49693e-06
1.58575e-06
1.5443e-06
1.47455e-06
1.41604e-06
1.39158e-06
1.4097e-06
1.45556e-06
1.51423e-06
1.56223e-06
1.58834e-06
1.6061e-06
1.62055e-06
1.62388e-06
1.62807e-06
1.77735e-06
1.03629e-06
1.11849e-06
1.10407e-06
1.19107e-06
1.29245e-06
1.3081e-06
1.38182e-06
1.5173e-06
1.60463e-06
1.55277e-06
1.4771e-06
1.41787e-06
1.39723e-06
1.41799e-06
1.46583e-06
1.52694e-06
1.57649e-06
1.60471e-06
1.62688e-06
1.64686e-06
1.65271e-06
1.65427e-06
1.81107e-06
1.05456e-06
1.11671e-06
1.10893e-06
1.20968e-06
1.28643e-06
1.30865e-06
1.39745e-06
1.54055e-06
1.62532e-06
1.5621e-06
1.48126e-06
1.42208e-06
1.40544e-06
1.42843e-06
1.47836e-06
1.54201e-06
1.59337e-06
1.62428e-06
1.65175e-06
1.67785e-06
1.68542e-06
1.68385e-06
1.85056e-06
1.07208e-06
1.11376e-06
1.1188e-06
1.22573e-06
1.27885e-06
1.31367e-06
1.416e-06
1.56733e-06
1.64737e-06
1.57243e-06
1.48707e-06
1.42874e-06
1.41582e-06
1.44091e-06
1.49327e-06
1.55969e-06
1.61316e-06
1.64748e-06
1.68088e-06
1.71315e-06
1.72186e-06
1.71731e-06
1.89624e-06
1.08766e-06
1.11091e-06
1.13374e-06
1.23844e-06
1.27223e-06
1.32297e-06
1.43752e-06
1.59846e-06
1.67051e-06
1.58379e-06
1.49469e-06
1.43769e-06
1.42805e-06
1.45531e-06
1.51089e-06
1.58049e-06
1.63618e-06
1.6742e-06
1.71406e-06
1.75278e-06
1.76184e-06
1.75482e-06
1.94936e-06
1.10032e-06
1.10976e-06
1.15318e-06
1.24663e-06
1.26845e-06
1.33609e-06
1.46268e-06
1.63484e-06
1.69454e-06
1.59635e-06
1.50404e-06
1.44863e-06
1.44189e-06
1.47173e-06
1.53164e-06
1.60482e-06
1.66269e-06
1.70459e-06
1.75107e-06
1.79614e-06
1.80518e-06
1.79711e-06
2.01149e-06
1.10962e-06
1.11194e-06
1.17483e-06
1.24967e-06
1.26868e-06
1.35256e-06
1.49186e-06
1.6771e-06
1.71924e-06
1.61021e-06
1.51489e-06
1.46128e-06
1.45729e-06
1.49036e-06
1.55587e-06
1.63294e-06
1.69279e-06
1.73831e-06
1.79162e-06
1.84319e-06
1.85171e-06
1.84192e-06
2.08403e-06
1.11573e-06
1.11884e-06
1.19566e-06
1.24841e-06
1.27358e-06
1.37216e-06
1.52486e-06
1.72435e-06
1.74461e-06
1.62547e-06
1.52717e-06
1.4752e-06
1.47379e-06
1.51145e-06
1.5835e-06
1.66472e-06
1.72642e-06
1.77542e-06
1.83559e-06
1.89358e-06
1.90066e-06
1.89167e-06
2.16629e-06
1.11958e-06
1.13141e-06
1.2145e-06
1.24473e-06
1.2833e-06
1.39483e-06
1.56124e-06
1.77448e-06
1.7705e-06
1.64209e-06
1.54086e-06
1.49036e-06
1.49157e-06
1.53506e-06
1.61449e-06
1.7e-06
1.76344e-06
1.81598e-06
1.88318e-06
1.94702e-06
1.95274e-06
1.94506e-06
2.26007e-06
1.06759e-06
1.12264e-06
1.15004e-06
1.23147e-06
1.24114e-06
1.29785e-06
1.4211e-06
1.60129e-06
1.82527e-06
1.79693e-06
1.6601e-06
1.556e-06
1.50701e-06
1.51106e-06
1.56137e-06
1.64878e-06
1.73847e-06
1.80383e-06
1.86039e-06
1.93402e-06
2.00431e-06
2.00777e-06
2.00582e-06
2.36262e-06
1.08725e-06
1.12674e-06
1.17448e-06
1.24543e-06
1.2402e-06
1.31745e-06
1.45187e-06
1.64579e-06
1.87575e-06
1.82383e-06
1.67955e-06
1.57302e-06
1.52544e-06
1.53261e-06
1.5907e-06
1.68626e-06
1.77999e-06
1.84774e-06
1.90904e-06
1.98999e-06
2.06451e-06
2.06511e-06
2.07264e-06
2.47668e-06
9.89236e-07
1.10445e-06
1.13384e-06
1.19986e-06
1.25401e-06
1.24386e-06
1.34247e-06
1.48873e-06
1.69572e-06
1.92689e-06
1.85211e-06
1.70051e-06
1.5924e-06
1.54619e-06
1.55704e-06
1.62346e-06
1.7271e-06
1.82479e-06
1.89545e-06
1.9627e-06
2.04975e-06
2.12871e-06
2.12479e-06
2.14955e-06
2.5935e-06
1.01186e-06
1.11873e-06
1.14575e-06
1.22408e-06
1.25756e-06
1.25365e-06
1.37336e-06
1.53354e-06
1.75213e-06
1.98061e-06
1.88283e-06
1.72368e-06
1.61483e-06
1.57e-06
1.58508e-06
1.6603e-06
1.77181e-06
1.87344e-06
1.94774e-06
2.01962e-06
2.11525e-06
2.1979e-06
2.18942e-06
2.23661e-06
2.69975e-06
1.03667e-06
1.13021e-06
1.16374e-06
1.24773e-06
1.25848e-06
1.2706e-06
1.41067e-06
1.58729e-06
1.81558e-06
2.03817e-06
1.91674e-06
1.74973e-06
1.64092e-06
1.59743e-06
1.6174e-06
1.70187e-06
1.82101e-06
1.92666e-06
2.00465e-06
2.08284e-06
2.18679e-06
2.27421e-06
2.26042e-06
2.33728e-06
2.81003e-06
1.06224e-06
1.14012e-06
1.18862e-06
1.27079e-06
1.25966e-06
1.29531e-06
1.45464e-06
1.64893e-06
1.8853e-06
2.09788e-06
1.95335e-06
1.77937e-06
1.67111e-06
1.62867e-06
1.65439e-06
1.74877e-06
1.87544e-06
1.98533e-06
2.06729e-06
2.15173e-06
2.26776e-06
2.35918e-06
2.33951e-06
2.4544e-06
2.93082e-06
1.08711e-06
1.15047e-06
1.21874e-06
1.29157e-06
1.26404e-06
1.32815e-06
1.50516e-06
1.71617e-06
1.95991e-06
2.15601e-06
1.99098e-06
1.81265e-06
1.70551e-06
1.66396e-06
1.69648e-06
1.80147e-06
1.93588e-06
2.05051e-06
2.13571e-06
2.23098e-06
2.35841e-06
2.44903e-06
2.42964e-06
2.589e-06
3.06873e-06
1.1103e-06
1.16373e-06
1.24944e-06
1.30833e-06
1.27364e-06
1.36933e-06
1.56209e-06
1.78756e-06
2.03942e-06
2.21012e-06
2.02874e-06
1.84983e-06
1.74377e-06
1.70318e-06
1.74383e-06
1.86054e-06
2.00337e-06
2.12358e-06
2.21438e-06
2.31994e-06
2.45767e-06
2.5477e-06
2.5314e-06
2.7467e-06
3.22285e-06
1.13124e-06
1.1823e-06
1.27987e-06
1.32088e-06
1.29058e-06
1.41894e-06
1.62535e-06
1.86202e-06
2.12321e-06
2.2611e-06
2.06711e-06
1.89094e-06
1.7856e-06
1.74645e-06
1.79707e-06
1.92686e-06
2.07917e-06
2.20397e-06
2.30016e-06
2.41967e-06
2.57e-06
2.65609e-06
2.65041e-06
2.92471e-06
3.39627e-06
1.1497e-06
1.20782e-06
1.31169e-06
1.33013e-06
1.31654e-06
1.47699e-06
1.69578e-06
1.93886e-06
2.2093e-06
2.31107e-06
2.10776e-06
1.93624e-06
1.83094e-06
1.79444e-06
1.85733e-06
2.00179e-06
2.16496e-06
2.29377e-06
2.39792e-06
2.53271e-06
2.69702e-06
2.77963e-06
2.78668e-06
3.12133e-06
3.59669e-06
1.16651e-06
1.2415e-06
1.34455e-06
1.33819e-06
1.35199e-06
1.54358e-06
1.77534e-06
2.01883e-06
2.29616e-06
2.36235e-06
2.15242e-06
1.98601e-06
1.88025e-06
1.84827e-06
1.92617e-06
2.08734e-06
2.26327e-06
2.39608e-06
2.50942e-06
2.6633e-06
2.84376e-06
2.91611e-06
2.94699e-06
3.33952e-06
3.81919e-06
1.18366e-06
1.27726e-06
1.3771e-06
1.34849e-06
1.39702e-06
1.61859e-06
1.86417e-06
2.1035e-06
2.38402e-06
2.41718e-06
2.20291e-06
2.04071e-06
1.93417e-06
1.90951e-06
2.00551e-06
2.18565e-06
2.37432e-06
2.51334e-06
2.63954e-06
2.81541e-06
3.00687e-06
3.07058e-06
3.13468e-06
3.57237e-06
4.05416e-06
1.2041e-06
1.31243e-06
1.40729e-06
1.36394e-06
1.4521e-06
1.70138e-06
1.95909e-06
2.19362e-06
2.47436e-06
2.47724e-06
2.26017e-06
2.10104e-06
1.99416e-06
1.97993e-06
2.0971e-06
2.2987e-06
2.50043e-06
2.64825e-06
2.79047e-06
2.98759e-06
3.18697e-06
3.245e-06
3.35269e-06
3.82871e-06
4.30519e-06
1.23104e-06
1.34951e-06
1.43169e-06
1.38629e-06
1.51737e-06
1.79065e-06
2.05535e-06
2.29031e-06
2.56934e-06
2.54241e-06
2.32456e-06
2.16775e-06
2.06163e-06
2.0615e-06
2.20285e-06
2.42806e-06
2.64007e-06
2.80171e-06
2.96135e-06
3.18091e-06
3.38419e-06
3.4421e-06
3.61022e-06
4.11516e-06
4.58188e-06
1.26737e-06
1.38868e-06
1.45002e-06
1.41634e-06
1.59307e-06
1.88477e-06
2.15045e-06
2.39569e-06
2.67121e-06
2.61228e-06
2.39602e-06
2.24161e-06
2.13804e-06
2.15535e-06
2.32372e-06
2.57521e-06
2.79735e-06
2.97048e-06
3.15194e-06
3.39195e-06
3.60075e-06
3.66995e-06
3.90517e-06
4.436e-06
4.88905e-06
1.31131e-06
1.43024e-06
1.46443e-06
1.45614e-06
1.67959e-06
1.98316e-06
2.24557e-06
2.51156e-06
2.78137e-06
2.68695e-06
2.47507e-06
2.32342e-06
2.22442e-06
2.26265e-06
2.46059e-06
2.73623e-06
2.96924e-06
3.15906e-06
3.36219e-06
3.62689e-06
3.83898e-06
3.92638e-06
4.24388e-06
4.80003e-06
5.23123e-06
1.35461e-06
1.4714e-06
1.4773e-06
1.50792e-06
1.77725e-06
2.08821e-06
2.34551e-06
2.63994e-06
2.9012e-06
2.76843e-06
2.56248e-06
2.41377e-06
2.32168e-06
2.38389e-06
2.61413e-06
2.91171e-06
3.15955e-06
3.36555e-06
3.59972e-06
3.88545e-06
4.09601e-06
4.22071e-06
4.62089e-06
5.21451e-06
5.61444e-06
1.39623e-06
1.51014e-06
1.49187e-06
1.57286e-06
1.88525e-06
2.20241e-06
2.45579e-06
2.78361e-06
3.03329e-06
2.86005e-06
2.65993e-06
2.5137e-06
2.43084e-06
2.52049e-06
2.78571e-06
3.10129e-06
3.363e-06
3.59623e-06
3.86132e-06
4.16777e-06
4.38223e-06
4.55852e-06
5.03955e-06
5.67982e-06
6.05055e-06
1.43775e-06
1.5426e-06
1.51305e-06
1.65255e-06
2.0022e-06
2.32436e-06
2.57965e-06
2.94381e-06
3.17784e-06
2.96515e-06
2.76909e-06
2.62439e-06
2.55372e-06
2.67388e-06
2.97522e-06
3.30521e-06
3.58741e-06
3.84637e-06
4.15155e-06
4.48161e-06
4.69984e-06
4.94448e-06
5.51294e-06
6.19748e-06
6.53565e-06
1.48072e-06
1.5673e-06
1.54593e-06
1.75026e-06
2.12695e-06
2.45034e-06
2.71852e-06
3.11931e-06
3.33196e-06
3.08588e-06
2.89211e-06
2.74815e-06
2.69295e-06
2.84763e-06
3.18159e-06
3.52711e-06
3.83154e-06
4.12656e-06
4.47453e-06
4.81933e-06
5.05779e-06
5.39451e-06
6.0461e-06
6.75813e-06
7.05684e-06
1.52423e-06
1.5879e-06
1.59338e-06
1.86742e-06
2.25997e-06
2.5794e-06
2.8761e-06
3.30797e-06
3.49229e-06
3.22364e-06
3.031e-06
2.88775e-06
2.85265e-06
3.04633e-06
3.40758e-06
3.77196e-06
4.10581e-06
4.44162e-06
4.8293e-06
5.1949e-06
5.47397e-06
5.91292e-06
6.63596e-06
7.36608e-06
7.6287e-06
1.57044e-06
1.60972e-06
1.65874e-06
2.00021e-06
2.40266e-06
2.71566e-06
3.05656e-06
3.51137e-06
3.66048e-06
3.37943e-06
3.1877e-06
3.04691e-06
3.03719e-06
3.27611e-06
3.6644e-06
4.04561e-06
4.41e-06
4.79129e-06
5.226e-06
5.61695e-06
5.94853e-06
6.49409e-06
7.30541e-06
8.01123e-06
8.2693e-06
1.61801e-06
1.63921e-06
1.74699e-06
2.14464e-06
2.55793e-06
2.86706e-06
3.2646e-06
3.73403e-06
3.84225e-06
3.55591e-06
3.36479e-06
3.22954e-06
3.25199e-06
3.54018e-06
3.95085e-06
4.35811e-06
4.75552e-06
5.19314e-06
5.66917e-06
6.08807e-06
6.50372e-06
7.17175e-06
8.07784e-06
8.73499e-06
9.00597e-06
1.66649e-06
1.67941e-06
1.86187e-06
2.30097e-06
2.73065e-06
3.04178e-06
3.50506e-06
3.98053e-06
4.04587e-06
3.75548e-06
3.56493e-06
3.44051e-06
3.50284e-06
3.83983e-06
4.28014e-06
4.71235e-06
5.15754e-06
5.64706e-06
6.17158e-06
6.62942e-06
7.15225e-06
7.96387e-06
8.96329e-06
9.56504e-06
9.81595e-06
1.71387e-06
1.73434e-06
2.00409e-06
2.47057e-06
2.92207e-06
3.24707e-06
3.78363e-06
4.25368e-06
4.27572e-06
3.98156e-06
3.79169e-06
3.68445e-06
3.79641e-06
4.17682e-06
4.65018e-06
5.12359e-06
5.61544e-06
6.1684e-06
6.74701e-06
7.25713e-06
7.89766e-06
8.86683e-06
9.96448e-06
1.0525e-05
1.07525e-05
1.7613e-06
1.80983e-06
2.17239e-06
2.65789e-06
3.12927e-06
3.4885e-06
4.10105e-06
4.55792e-06
4.53389e-06
4.23578e-06
4.04815e-06
3.96732e-06
4.14072e-06
4.56386e-06
5.07532e-06
5.58834e-06
6.14532e-06
6.76708e-06
7.39466e-06
7.97862e-06
8.7639e-06
9.90462e-06
1.1086e-05
1.16229e-05
1.1844e-05
1.81135e-06
1.91153e-06
2.35925e-06
2.86404e-06
3.35289e-06
3.77193e-06
4.45493e-06
4.89485e-06
4.8224e-06
4.52167e-06
4.33985e-06
4.29469e-06
4.54044e-06
5.00243e-06
5.55609e-06
6.12407e-06
6.75498e-06
7.44158e-06
8.13113e-06
8.81712e-06
9.78035e-06
1.10969e-05
1.23227e-05
1.28178e-05
1.30969e-05
1.87175e-06
2.04534e-06
2.55981e-06
3.08884e-06
3.60293e-06
4.10308e-06
4.84493e-06
5.27005e-06
5.14833e-06
4.84151e-06
4.67075e-06
4.67319e-06
4.99242e-06
5.50311e-06
6.10299e-06
6.73856e-06
7.44713e-06
8.20863e-06
8.97329e-06
9.80355e-06
1.0979e-05
1.24612e-05
1.36791e-05
1.4141e-05
1.44871e-05
1.94891e-06
2.21798e-06
2.77816e-06
3.34323e-06
3.8867e-06
4.48402e-06
5.27623e-06
5.69422e-06
5.51035e-06
5.19791e-06
5.04862e-06
5.11211e-06
5.50019e-06
6.06619e-06
6.72813e-06
7.4371e-06
8.24018e-06
9.07951e-06
9.92361e-06
1.09527e-05
1.23727e-05
1.402e-05
1.51994e-05
1.56414e-05
1.60745e-05
2.04543e-06
2.42677e-06
3.02235e-06
3.63832e-06
4.21823e-06
4.91711e-06
5.75088e-06
6.16511e-06
5.90823e-06
5.59957e-06
5.47886e-06
5.62229e-06
6.08266e-06
6.7117e-06
7.43294e-06
8.24104e-06
9.13784e-06
1.00629e-05
1.10217e-05
1.22877e-05
1.39853e-05
1.57827e-05
1.69198e-05
1.7357e-05
1.78911e-05
2.16724e-06
2.66742e-06
3.29956e-06
3.98697e-06
4.60711e-06
5.40976e-06
6.27546e-06
6.66169e-06
6.3533e-06
6.05404e-06
5.97263e-06
6.21947e-06
6.74413e-06
7.43728e-06
8.24352e-06
9.15131e-06
1.01526e-05
1.1199e-05
1.23187e-05
1.38508e-05
1.58388e-05
1.7778e-05
1.88734e-05
1.93152e-05
1.99579e-05
2.3266e-06
2.93968e-06
3.60767e-06
4.38652e-06
5.06984e-06
5.98099e-06
6.85863e-06
7.18256e-06
6.84152e-06
6.5717e-06
6.54095e-06
6.89269e-06
7.50347e-06
8.26953e-06
9.16342e-06
1.01875e-05
1.13161e-05
1.24905e-05
1.385e-05
1.56768e-05
1.79456e-05
1.99816e-05
2.10314e-05
2.15189e-05
2.22667e-05
2.52771e-06
3.23089e-06
3.94294e-06
4.82989e-06
5.61253e-06
6.64349e-06
7.50423e-06
7.73337e-06
7.38912e-06
7.15966e-06
7.19614e-06
7.65395e-06
8.3604e-06
9.21852e-06
1.02098e-05
1.13777e-05
1.265e-05
1.39697e-05
1.56404e-05
1.77914e-05
2.02887e-05
2.23428e-05
2.33589e-05
2.39174e-05
2.47637e-05
2.7742e-06
3.53916e-06
4.31483e-06
5.32962e-06
6.23715e-06
7.402e-06
8.19945e-06
8.34953e-06
8.00708e-06
7.82567e-06
7.96093e-06
8.53635e-06
9.32577e-06
1.02889e-05
1.14119e-05
1.27273e-05
1.4132e-05
1.56768e-05
1.76661e-05
2.02246e-05
2.28765e-05
2.48725e-05
2.58771e-05
2.65283e-05
2.74798e-05
3.07195e-06
3.88905e-06
4.75053e-06
5.89506e-06
6.94487e-06
8.24976e-06
8.96109e-06
9.04063e-06
8.70995e-06
8.58451e-06
8.85451e-06
9.52103e-06
1.04111e-05
1.14917e-05
1.27658e-05
1.42491e-05
1.581e-05
1.76797e-05
2.00247e-05
2.29543e-05
2.57302e-05
2.76193e-05
2.8614e-05
2.93418e-05
3.03785e-05
3.42082e-06
4.29317e-06
5.28537e-06
6.56833e-06
7.75443e-06
9.17847e-06
9.80551e-06
9.82479e-06
9.51564e-06
9.45322e-06
9.87623e-06
1.06607e-05
1.16553e-05
1.28564e-05
1.43002e-05
1.5944e-05
1.77614e-05
1.99772e-05
2.27824e-05
2.60076e-05
2.88374e-05
3.05837e-05
3.15421e-05
3.23338e-05
3.34394e-05
3.8071e-06
4.74888e-06
5.92529e-06
7.3283e-06
8.64485e-06
1.00896e-05
1.06702e-05
1.06511e-05
1.03713e-05
1.03958e-05
1.0982e-05
1.19051e-05
1.30254e-05
1.43293e-05
1.59625e-05
1.77905e-05
1.99597e-05
2.25632e-05
2.58089e-05
2.923e-05
3.19917e-05
3.35909e-05
3.45107e-05
3.53872e-05
3.65594e-05
4.26166e-06
5.31514e-06
6.76864e-06
8.35039e-06
9.84175e-06
1.1252e-05
1.18343e-05
1.17965e-05
1.15684e-05
1.17306e-05
1.24698e-05
1.3526e-05
1.47652e-05
1.62466e-05
1.80264e-05
2.01525e-05
2.26659e-05
2.58222e-05
2.94062e-05
3.2935e-05
3.55344e-05
3.69926e-05
3.7878e-05
3.88059e-05
3.99918e-05
4.63427e-06
5.72782e-06
7.32028e-06
8.86472e-06
1.03872e-05
1.16269e-05
1.21315e-05
1.20394e-05
1.18479e-05
1.21642e-05
1.30589e-05
1.42214e-05
1.55418e-05
1.7162e-05
1.91002e-05
2.14999e-05
2.44149e-05
2.79353e-05
3.17523e-05
3.51788e-05
3.75613e-05
3.89374e-05
3.99183e-05
4.09551e-05
4.21715e-05
5.55229e-06
7.18097e-06
9.83379e-06
1.23732e-05
1.42441e-05
1.55302e-05
1.60697e-05
1.60891e-05
1.62286e-05
1.70356e-05
1.81749e-05
1.94205e-05
2.0753e-05
2.24637e-05
2.45909e-05
2.73829e-05
3.09251e-05
3.5168e-05
3.93486e-05
4.25599e-05
4.43982e-05
4.53235e-05
4.60165e-05
4.67985e-05
4.77809e-05
5.01594e-06
5.57423e-06
6.15309e-06
6.64663e-06
7.05976e-06
7.44971e-06
7.90044e-06
8.45605e-06
9.17473e-06
1.00911e-05
1.11709e-05
1.24422e-05
1.40044e-05
1.58984e-05
1.81324e-05
2.07151e-05
2.35976e-05
2.66045e-05
2.94471e-05
3.19032e-05
3.40186e-05
3.59493e-05
3.76878e-05
3.91982e-05
4.0669e-05
0.000886376
8.25513e-06
3.54124e-07
6.75907e-07
6.58392e-07
6.59417e-07
6.59677e-07
6.60102e-07
6.60662e-07
6.61359e-07
6.62194e-07
6.63175e-07
6.64318e-07
6.65642e-07
6.67171e-07
6.6893e-07
6.70951e-07
6.73275e-07
6.75948e-07
6.79021e-07
6.82553e-07
6.86605e-07
6.91236e-07
6.96488e-07
7.02392e-07
7.08955e-07
7.16174e-07
7.24041e-07
7.32548e-07
7.41678e-07
7.51402e-07
7.61677e-07
7.72446e-07
7.83611e-07
7.95019e-07
8.06463e-07
8.17718e-07
8.28581e-07
8.38846e-07
8.48257e-07
8.56527e-07
8.63396e-07
8.68604e-07
8.71784e-07
8.72446e-07
8.70181e-07
8.64826e-07
8.56504e-07
8.45678e-07
8.32874e-07
8.18647e-07
8.03618e-07
7.88581e-07
7.74465e-07
7.62159e-07
7.52524e-07
7.46494e-07
7.45642e-07
7.52782e-07
7.72257e-07
8.10484e-07
8.76749e-07
9.8312e-07
1.14186e-06
1.36002e-06
1.63551e-06
1.96504e-06
2.36969e-06
2.92692e-06
3.77439e-06
5.05234e-06
6.82462e-06
9.10957e-06
1.19522e-05
1.54615e-05
1.97584e-05
2.48086e-05
3.00754e-05
3.40244e-05
3.64202e-05
3.77214e-05
3.83461e-05
3.85393e-05
3.82491e-05
3.78054e-05
3.75131e-05
3.75066e-05
3.77804e-05
3.82259e-05
3.87434e-05
3.93464e-05
3.99929e-05
4.06417e-05
4.12726e-05
4.18027e-05
4.22433e-05
4.25475e-05
4.25727e-05
4.19698e-05
1.03755e-05
2.42844e-05
4.31401e-07
6.62429e-07
6.60358e-07
6.59822e-07
6.60225e-07
6.60672e-07
6.61225e-07
6.61898e-07
6.62685e-07
6.63583e-07
6.64594e-07
6.65721e-07
6.66967e-07
6.68335e-07
6.69829e-07
6.7145e-07
6.73202e-07
6.75089e-07
6.77123e-07
6.79318e-07
6.81693e-07
6.84267e-07
6.87078e-07
6.90183e-07
6.9365e-07
6.97555e-07
7.01977e-07
7.07007e-07
7.12749e-07
7.19318e-07
7.26842e-07
7.35463e-07
7.45345e-07
7.56683e-07
7.69695e-07
7.84628e-07
8.01751e-07
8.21306e-07
8.43389e-07
8.67821e-07
8.94205e-07
9.22293e-07
9.5211e-07
9.83141e-07
1.014e-06
1.04209e-06
1.06498e-06
1.08097e-06
1.08859e-06
1.08636e-06
1.07346e-06
1.05053e-06
1.0204e-06
9.87965e-07
9.5743e-07
9.28919e-07
9.00038e-07
8.68629e-07
8.32162e-07
7.87801e-07
7.333e-07
6.65158e-07
5.7848e-07
4.70468e-07
3.46114e-07
2.1824e-07
9.63007e-08
1.93103e-08
2.8662e-08
5.93466e-08
2.39425e-08
9.11958e-08
2.57705e-08
3.60335e-07
2.92447e-06
1.42997e-05
2.66627e-05
3.67583e-05
4.64644e-05
5.46018e-05
6.10435e-05
6.39843e-05
6.35561e-05
6.17271e-05
5.97326e-05
5.80685e-05
5.66946e-05
5.53831e-05
5.45683e-05
5.42262e-05
5.40069e-05
5.37107e-05
5.32068e-05
5.22704e-05
5.11166e-05
4.99302e-05
4.88774e-05
1.81298e-05
2.5651e-05
4.94131e-07
6.61019e-07
6.60254e-07
6.59637e-07
6.59812e-07
6.60188e-07
6.60636e-07
6.61183e-07
6.61832e-07
6.62578e-07
6.63422e-07
6.64365e-07
6.65412e-07
6.66571e-07
6.67856e-07
6.69274e-07
6.70836e-07
6.72557e-07
6.74455e-07
6.76548e-07
6.78855e-07
6.81391e-07
6.84174e-07
6.87231e-07
6.90593e-07
6.9429e-07
6.9836e-07
7.02848e-07
7.07806e-07
7.13295e-07
7.19383e-07
7.26154e-07
7.33697e-07
7.42112e-07
7.51513e-07
7.6203e-07
7.73822e-07
7.87083e-07
8.02029e-07
8.1879e-07
8.37105e-07
8.56223e-07
8.76295e-07
8.98171e-07
9.2241e-07
9.48314e-07
9.73111e-07
9.94654e-07
1.01109e-06
1.02085e-06
1.02228e-06
1.01359e-06
9.94044e-07
9.66268e-07
9.3687e-07
9.10973e-07
8.88138e-07
8.67179e-07
8.47614e-07
8.2875e-07
8.11551e-07
7.98801e-07
7.92487e-07
7.93012e-07
8.00702e-07
8.18859e-07
8.6341e-07
9.53294e-07
1.058e-06
1.12135e-06
1.15095e-06
1.2648e-06
1.65667e-06
2.64279e-06
4.9583e-06
1.018e-05
1.93716e-05
2.83842e-05
3.7824e-05
4.63947e-05
5.28128e-05
5.67734e-05
5.72858e-05
5.61647e-05
5.46887e-05
5.33975e-05
5.23804e-05
5.14559e-05
5.08548e-05
5.06401e-05
5.04837e-05
5.01642e-05
4.94843e-05
4.82115e-05
4.66545e-05
4.50967e-05
4.35986e-05
2.06921e-05
2.06551e-05
5.80536e-07
6.57859e-07
6.60559e-07
6.59717e-07
6.59687e-07
6.60004e-07
6.60399e-07
6.6088e-07
6.61454e-07
6.62119e-07
6.62871e-07
6.63709e-07
6.64635e-07
6.65657e-07
6.66782e-07
6.68017e-07
6.69369e-07
6.70849e-07
6.72472e-07
6.74252e-07
6.76207e-07
6.78358e-07
6.80731e-07
6.83357e-07
6.86268e-07
6.89507e-07
6.93117e-07
6.9715e-07
7.01663e-07
7.0672e-07
7.12395e-07
7.18779e-07
7.25972e-07
7.34075e-07
7.43209e-07
7.5351e-07
7.65137e-07
7.78276e-07
7.93152e-07
8.10056e-07
8.292e-07
8.50049e-07
8.71292e-07
8.93447e-07
9.17203e-07
9.43257e-07
9.6993e-07
9.94377e-07
1.01441e-06
1.02826e-06
1.03434e-06
1.03118e-06
1.01732e-06
9.93165e-07
9.63442e-07
9.35058e-07
9.0992e-07
8.86439e-07
8.63663e-07
8.4048e-07
8.16441e-07
7.92995e-07
7.71648e-07
7.52317e-07
7.34943e-07
7.22303e-07
7.25224e-07
7.62908e-07
8.32729e-07
8.9367e-07
9.14035e-07
9.55171e-07
1.15645e-06
1.70689e-06
3.28073e-06
7.66201e-06
1.61308e-05
2.50252e-05
3.4252e-05
4.34921e-05
5.13987e-05
5.65942e-05
5.75929e-05
5.65429e-05
5.49335e-05
5.34583e-05
5.23425e-05
5.13783e-05
5.06897e-05
5.04505e-05
5.02395e-05
4.97724e-05
4.8706e-05
4.6991e-05
4.50051e-05
4.31388e-05
4.14557e-05
2.27096e-05
2.91389e-05
6.16938e-07
6.55636e-07
6.60639e-07
6.59809e-07
6.59526e-07
6.59748e-07
6.60079e-07
6.60487e-07
6.60983e-07
6.61566e-07
6.62231e-07
6.62976e-07
6.63806e-07
6.64729e-07
6.65751e-07
6.6688e-07
6.68123e-07
6.69491e-07
6.70996e-07
6.72653e-07
6.7448e-07
6.76494e-07
6.78725e-07
6.812e-07
6.83946e-07
6.86998e-07
6.90397e-07
6.94188e-07
6.98425e-07
7.03167e-07
7.08484e-07
7.14454e-07
7.21169e-07
7.28725e-07
7.37233e-07
7.46818e-07
7.57626e-07
7.69826e-07
7.83613e-07
7.99226e-07
8.16959e-07
8.36937e-07
8.57998e-07
8.79499e-07
9.02266e-07
9.26905e-07
9.53551e-07
9.79381e-07
1.00207e-06
1.0195e-06
1.02984e-06
1.03163e-06
1.02332e-06
1.00411e-06
9.76663e-07
9.47844e-07
9.2207e-07
8.98613e-07
8.76238e-07
8.5396e-07
8.31015e-07
8.0841e-07
7.88169e-07
7.70994e-07
7.56583e-07
7.46424e-07
7.48209e-07
7.80766e-07
8.49302e-07
9.18545e-07
9.47887e-07
9.81182e-07
1.14803e-06
1.5981e-06
2.71343e-06
5.60017e-06
1.20574e-05
2.05355e-05