/*--------------------------------*- C++ -*----------------------------------*\
  =========                 |
  \\      /  F ield         | OpenFOAM: The Open Source CFD Toolbox
   \\    /   O peration     | Website:  https://openfoam.org
    \\  /    A nd           | Version:  9
     \\/     M anipulation  |
\*---------------------------------------------------------------------------*/
FoamFile
{
    format      ascii;
    class       volScalarField;
    location    "3000";
    object      omega;
}
// * * * * * * * * * * * * * * * * * * * * * * * * * * * * * * * * * * * * * //

dimensions      [0 0 -1 0 0 0 0];

internalField   nonuniform List<scalar> 
13354
(
85.224
82.7599
81.8429
82.0071
82.1204
82.8138
84.5393
87.0769
91.1765
98.7238
113.91
140.455
167.101
85.9939
84.1877
83.1136
83.2271
83.5298
84.3474
86.0106
88.1775
92.8443
102.042
119.95
148.076
166.118
85.5014
83.4588
82.1706
82.0189
82.8678
83.9692
85.116
86.5158
91.8149
103.851
122.574
143.005
148.66
83.6013
81.6105
80.0932
79.9286
81.0208
82.4498
83.0325
84.2643
89.2544
100.514
117.525
130.373
129.001
80.5146
79.1225
77.5076
77.0754
78.0543
79.6916
80.2157
81.2536
84.9254
93.4362
105.812
115.685
113.05
77.292
76.3052
74.5982
73.9296
74.6227
76.1151
76.9113
77.6043
79.7994
85.0985
93.4493
101.497
100.706
74.1143
73.2269
71.4324
70.6543
71.0988
72.2006
73.1205
73.5537
74.6086
77.4654
82.6906
88.7181
90.8919
70.8516
70.0353
68.2877
67.4937
67.6325
68.3426
69.0828
69.3505
69.6923
71.1923
74.5238
79.1892
82.6881
67.5642
66.862
65.4246
64.4483
64.2558
64.621
65.1492
65.2543
65.2678
66.133
68.4512
71.9914
75.3791
64.5805
63.9825
62.7164
61.5216
60.97
61.152
61.471
61.3703
61.257
61.8701
63.601
66.11
69.0717
61.8203
61.126
59.9104
58.6277
57.8974
57.9027
57.9962
57.7901
57.6221
58.0793
59.4556
61.3219
63.742
59.19
58.3038
57.0352
55.6951
54.9773
54.9244
54.8495
54.5778
54.351
54.6611
55.7644
57.3468
59.377
56.6244
55.5477
54.2576
52.9502
52.2612
52.1816
52.0912
51.803
51.4353
51.5314
52.4578
53.9148
55.7286
54.178
52.912
51.6495
50.4503
49.7942
49.6836
49.601
49.279
48.8091
48.715
49.4667
50.8328
52.5436
51.8083
50.3866
49.2319
48.22
47.5891
47.4112
47.2652
46.9036
46.3087
46.1057
46.6777
47.9968
49.6364
49.45
48.0262
47.0378
46.1678
45.5529
45.297
45.0655
44.6646
44.0933
43.7293
44.1049
45.3904
47.0067
47.2058
45.8705
44.9799
44.2024
43.617
43.293
42.9803
42.5973
42.1157
41.6178
41.787
42.9393
44.5848
45.1382
43.889
43.0362
42.3008
41.7345
41.3688
41.0076
40.6505
40.225
39.7065
39.7539
40.6783
42.3045
43.1934
42.0317
41.2
40.4627
39.9105
39.5393
39.1657
38.8303
38.4394
37.9244
37.903
38.6487
40.0922
41.3245
40.2487
39.4334
38.7129
38.1792
37.8134
37.4347
37.123
36.8748
36.4318
36.2247
36.773
38.0115
39.5465
38.5377
37.7511
37.0473
36.5174
36.1282
35.7265
35.4028
35.2128
34.975
34.6755
35.0029
36.0835
37.8227
36.8798
36.1256
35.4318
34.8792
34.4589
34.0194
33.7097
33.6873
33.4348
33.2688
33.4465
34.197
36.1275
35.2673
34.5593
33.8924
33.3486
32.9328
32.5058
32.1948
32.1448
32.0538
31.8914
31.9437
32.4987
34.4733
33.704
33.0528
32.4343
31.9385
31.5249
31.1222
30.8179
30.7388
30.6517
30.4754
30.5014
30.9033
32.8718
32.1948
31.5993
31.0464
30.618
30.2818
29.8445
29.5337
29.4235
29.3131
29.1426
29.1102
29.421
31.3381
30.7448
30.1929
29.6879
29.3607
29.0812
28.7371
28.3415
28.195
28.0534
27.8856
27.8103
28.052
29.8766
29.3608
28.8489
28.364
28.0966
27.9323
27.6446
27.2953
27.0393
26.8865
26.6867
26.6005
26.7887
28.4873
28.04
27.5704
27.121
26.8688
26.7701
26.569
26.2867
26.007
25.7737
25.5982
25.4719
25.6035
27.1694
26.7793
26.3483
25.9434
25.7268
25.6245
25.5049
25.2548
25.0379
24.7593
24.5251
24.4306
24.5058
25.9163
25.5751
25.1767
24.8172
24.6444
24.5571
24.4329
24.269
24.0593
23.8078
23.5268
23.4233
23.4654
24.7227
24.4214
24.0522
23.7366
23.6062
23.5413
23.4237
23.2737
23.1273
22.8906
22.5891
22.4424
22.4867
23.5843
23.3136
22.9704
22.697
22.6042
22.5598
22.4579
22.3148
22.1989
21.9983
21.6981
21.503
21.528
22.4957
22.2483
21.9286
21.6944
21.6334
21.6064
21.5202
21.3865
21.278
21.1201
20.8388
20.6088
20.5685
21.4526
21.2217
20.9251
20.7275
20.6922
20.6784
20.6063
20.4828
20.3778
20.2488
20.0017
19.7492
19.6332
20.4524
20.2326
19.9582
19.7949
19.7799
19.7755
19.7146
19.602
19.5038
19.3933
19.1767
18.919
18.7514
19.7257
19.4922
19.2802
19.0278
18.8955
18.896
18.898
18.8472
18.7458
18.6569
18.5608
18.3602
18.1165
17.9276
18.7617
18.8993
18.8647
18.7139
18.709
18.7057
18.5883
18.9285
18.7664
18.571
18.3634
18.1332
18.0295
18.0407
18.0471
18.0062
17.917
17.8377
17.7512
17.5605
17.3396
17.1518
17.8677
17.9933
17.926
17.7944
17.8033
17.7651
17.6938
18.0321
17.8507
17.6872
17.4823
17.2735
17.1957
17.2147
17.2246
17.1934
17.1163
17.0449
16.9644
16.7863
16.5859
16.4124
17.0081
17.1154
17.0239
16.914
16.9337
16.8677
16.8471
17.1688
16.9786
16.8386
16.636
16.449
16.3939
16.4181
16.432
16.4105
16.3432
16.2766
16.2043
16.0415
15.8559
15.7002
16.183
16.2667
16.1603
16.0729
16.0989
16.013
16.0445
16.3376
16.1494
16.0243
15.8242
15.6587
15.6239
15.6519
15.6703
15.6569
15.5962
15.5345
15.4734
15.3256
15.1507
15.0172
15.3917
15.4479
15.336
15.27
15.2976
15.2002
15.2809
15.5383
15.3608
15.2428
15.047
14.9025
14.885
14.9164
14.9395
14.9314
14.8752
14.8207
14.772
14.6373
14.4715
14.3668
14.6325
14.6596
14.5509
14.504
14.5289
14.4291
14.5516
14.771
14.6102
14.4929
14.3035
14.1802
14.1775
14.2115
14.2378
14.2331
14.1822
14.1361
14.0989
13.9756
13.8209
13.748
13.7746
13.9042
13.9026
13.8041
13.7728
13.7922
13.6989
13.8531
14.0359
13.895
13.7745
13.5937
13.4913
13.501
13.536
13.564
13.5624
13.5177
13.4801
13.4526
13.3404
13.2016
13.1551
13.0802
13.2052
13.1779
13.0939
13.0743
13.087
13.0083
13.1825
13.3325
13.2121
13.0873
12.9173
12.8355
12.8536
12.8881
12.918
12.9201
12.8811
12.851
12.8328
12.7333
12.6137
12.5784
12.4179
12.5343
12.486
12.4186
12.407
12.4132
12.3554
12.5374
12.661
12.5599
12.4312
12.2737
12.2109
12.2341
12.2675
12.2999
12.3054
12.2714
12.2482
12.2399
12.1557
12.0531
12.0129
11.7872
11.8907
11.8275
11.7762
11.7696
11.7707
11.7379
11.9182
12.0224
11.937
11.8059
11.6617
11.6155
11.6411
11.6743
11.7094
11.7173
11.6874
11.6719
11.6754
11.6064
11.5127
11.4585
11.1871
11.2735
11.2021
11.1651
11.1613
11.1596
11.1528
11.3254
11.417
11.3421
11.2105
11.0799
11.048
11.0744
11.1077
11.1451
11.1548
11.1293
11.1229
11.139
11.0809
10.9884
10.9211
10.6158
10.6824
10.6093
10.5835
10.5812
10.5797
10.5977
10.7596
10.8432
10.7742
10.6437
10.5265
10.5067
10.5331
10.5673
10.6063
10.6172
10.5975
10.6016
10.628
10.5754
10.4797
10.4069
10.0717
10.1172
10.0481
10.0301
10.0287
10.0305
10.0702
10.2219
10.2989
10.2321
10.1044
10.0007
9.99056
10.0164
10.0516
10.0922
10.1053
10.0923
10.1058
10.139
10.0876
9.98968
9.91797
9.55295
9.57819
9.51712
9.50376
9.50336
9.51115
9.56903
9.7139
9.78168
9.71527
9.59149
9.50106
9.49831
9.52329
9.56026
9.60297
9.61891
9.61226
9.63302
9.66945
9.6182
9.52136
9.45388
9.05796
9.06544
9.01466
9.00334
9.00441
9.02046
9.09316
9.23461
9.28943
9.2231
9.10411
9.02661
9.02873
9.05322
9.09321
9.13867
9.15713
9.15502
9.18059
9.21923
9.16914
9.07527
9.01298
8.58536
8.57903
8.53888
8.52792
8.53129
8.55707
8.64221
8.78263
8.82063
8.75497
8.64117
8.57589
8.58121
8.60628
8.65024
8.69813
8.7179
8.7185
8.74774
8.7885
8.7409
8.65107
8.59369
8.13417
8.11877
8.0881
8.07672
8.08344
8.11981
8.21615
8.35559
8.37454
8.31024
8.20193
8.1478
8.15525
8.1823
8.23058
8.27959
8.29903
8.30135
8.3343
8.37777
8.33311
8.24739
8.19462
7.70374
7.68405
7.6607
7.64896
7.66034
7.70732
7.81312
7.95009
7.95054
7.88789
7.78548
7.7416
7.75072
7.78045
7.83229
7.88107
7.8994
7.90357
7.94042
7.98627
7.94499
7.86348
7.81445
7.29377
7.27396
7.25536
7.24397
7.26144
7.31839
7.43059
7.56219
7.54826
7.48709
7.39131
7.35637
7.36672
7.39943
7.45371
7.50125
7.5185
7.52496
7.56582
7.61369
7.57541
7.4979
7.4525
6.90414
6.88719
6.87093
6.86107
6.88611
6.95182
7.06706
7.18842
7.16701
7.10702
7.01873
6.99116
7.00217
7.03761
7.09355
7.13966
7.15612
7.16523
7.20985
7.25884
7.2235
7.15003
7.10762
6.53475
6.5222
6.50648
6.49963
6.53343
6.60635
6.72149
6.82823
6.80572
6.74663
6.66663
6.64442
6.65583
6.69409
6.75113
6.79562
6.81179
6.8238
6.8719
6.92122
6.88827
6.81875
6.7794
6.18551
6.17752
6.1613
6.15901
6.20219
6.28091
6.39368
6.48341
6.46359
6.40501
6.33367
6.31489
6.32677
6.36791
6.42582
6.46885
6.48493
6.4998
6.55109
6.59999
6.56918
6.50353
6.46677
5.82616
5.85596
5.85159
5.83475
5.8385
5.89099
5.97435
6.0827
6.15524
6.13933
6.08118
6.01834
6.00144
6.01437
6.05857
6.11693
6.15851
6.17487
6.19257
6.24666
6.29458
6.26551
6.20358
6.16946
5.5188
5.54551
5.54314
5.52628
5.53722
5.59829
5.68588
5.78741
5.84383
5.83189
5.77434
5.71927
5.70335
5.71799
5.76524
5.82389
5.86412
5.88068
5.90117
5.95787
6.00423
5.97667
5.91827
5.88656
5.16299
5.22678
5.25311
5.25105
5.23528
5.2542
5.32277
5.41438
5.5067
5.54795
5.53952
5.48377
5.43535
5.41995
5.43714
5.48734
5.54581
5.5848
5.60181
5.62503
5.68386
5.72814
5.70193
5.64701
5.61774
4.89395
4.95029
4.97751
4.97435
4.96108
4.98829
5.06314
5.15757
5.23968
5.26622
5.26062
5.20852
5.16559
5.15078
5.17108
5.22394
5.28209
5.31987
5.33724
5.36327
5.42403
5.46578
5.44068
5.38914
5.36221
4.63859
4.6892
4.71747
4.71239
4.70299
4.73844
4.81845
4.9128
4.98537
4.99805
4.99443
4.94799
4.90923
4.89526
4.91918
4.97435
5.03178
5.0685
5.08653
5.11532
5.17761
5.21652
5.19241
5.14422
5.11962
4.39631
4.44291
4.47188
4.46459
4.46026
4.50362
4.58779
4.67851
4.74291
4.74382
4.74096
4.70119
4.66553
4.65302
4.68069
4.73774
4.79431
4.82995
4.84865
4.88038
4.94414
4.97994
4.95653
4.91155
4.88931
4.16648
4.21058
4.23979
4.23058
4.23215
4.2829
4.37049
4.45473
4.51103
4.50399
4.50086
4.46757
4.43389
4.42347
4.455
4.5134
4.56877
4.60354
4.62319
4.65775
4.72268
4.75537
4.7326
4.69077
4.67088
3.94859
3.99123
4.02022
4.00993
4.01802
4.07546
4.16564
4.24107
4.28811
4.27811
4.27419
4.24629
4.21393
4.20626
4.24139
4.30061
4.35467
4.38855
4.40917
4.44667
4.51265
4.5422
4.51998
4.48124
4.4638
3.74233
3.78402
3.81234
3.80222
3.81716
3.88039
3.97243
4.0377
4.07418
4.06534
4.06081
4.03672
4.00521
4.00083
4.03933
4.09878
4.15122
4.1844
4.20616
4.24638
4.31296
4.33969
4.31827
4.28261
4.26758
3.54755
3.58838
3.61551
3.60701
3.62895
3.6968
3.7891
3.8449
3.87042
3.86471
3.86007
3.8382
3.80754
3.80684
3.84815
3.90731
3.95809
3.99048
4.01329
4.0562
4.12304
4.14711
4.12668
4.09423
4.08179
3.36408
3.40376
3.42922
3.42384
3.45267
3.52349
3.61312
3.66221
3.67745
3.67502
3.67106
3.65015
3.62054
3.62377
3.66746
3.72576
3.77463
3.80628
3.83019
3.87534
3.94177
3.96383
3.94484
3.91562
3.90578
3.19154
3.22967
3.25311
3.25225
3.28749
3.3592
3.44311
3.48863
3.49506
3.49506
3.49271
3.47205
3.44406
3.45128
3.49669
3.5537
3.60056
3.63127
3.65617
3.70327
3.76852
3.78911
3.77196
3.74617
3.73901
3.0291
3.06535
3.08688
3.09178
3.13253
3.20277
3.27936
3.32361
3.32254
3.32391
3.324
3.30332
3.27756
3.28884
3.33554
3.39083
3.43534
3.46507
3.491
3.53942
3.60265
3.62255
3.60772
3.58535
3.58068
2.87572
2.91007
2.93035
2.94187
2.98677
3.05367
3.12326
3.16672
3.15933
3.16148
3.16433
3.14361
3.12074
3.1359
3.18335
3.23664
3.27873
3.30747
3.33439
3.38378
3.44435
3.46373
3.45141
3.43256
3.43038
2.73052
2.76324
2.78337
2.80188
2.84896
2.91184
2.97558
3.0171
3.00485
3.00789
3.01308
2.99242
2.973
2.99187
3.03973
3.09076
3.13028
3.1583
3.18636
3.23638
3.2938
3.31268
3.30282
3.28729
3.2875
2.593
2.62459
2.64576
2.67103
2.7178
2.77705
2.83602
2.87407
2.85865
2.86311
2.86975
2.84942
2.8339
2.85611
2.90393
2.95264
2.98982
3.01727
3.04655
3.09718
3.15129
3.16941
3.16169
3.14932
3.15176
2.463
2.49402
2.51738
2.54868
2.59253
2.64817
2.70405
2.7369
2.72021
2.72667
2.73382
2.71422
2.70291
2.72813
2.77552
2.82171
2.85685
2.88408
2.9147
2.96582
3.01656
3.03391
3.02816
3.01844
3.02239
2.34021
2.37134
2.39777
2.43338
2.47284
2.52463
2.57919
2.60529
2.58898
2.59791
2.60484
2.58647
2.5795
2.60728
2.65387
2.69754
2.73112
2.75834
2.79034
2.84198
2.88938
2.90583
2.90186
2.89456
2.89941
2.22421
2.25643
2.28644
2.32362
2.35866
2.40698
2.46123
2.47932
2.46453
2.47609
2.48235
2.46577
2.46316
2.49313
2.53862
2.57976
2.61213
2.63964
2.67321
2.72523
2.76929
2.78496
2.78273
2.77737
2.78249
2.11446
2.14916
2.1829
2.21846
2.24972
2.29597
2.34965
2.35905
2.34659
2.36047
2.36597
2.35174
2.35335
2.38501
2.42918
2.46809
2.49964
2.52758
2.56278
2.61518
2.65607
2.67092
2.67027
2.66675
2.67188
2.01066
2.04898
2.08646
2.11754
2.14614
2.19203
2.24362
2.24454
2.23508
2.25064
2.25541
2.244
2.24961
2.28252
2.32509
2.36208
2.39312
2.42176
2.4587
2.51125
2.54916
2.56344
2.56436
2.56231
2.56719
1.91287
1.95517
1.99564
2.02104
2.0482
2.09488
2.14273
2.13578
2.12962
2.1462
2.15045
2.14217
2.15142
2.18505
2.22591
2.26147
2.29234
2.32173
2.36031
2.41284
2.44823
2.46209
2.46439
2.46365
2.46851
1.82137
1.86753
1.90837
1.92889
1.95541
2.00361
2.04604
2.03259
2.02981
2.047
2.05099
2.0459
2.05843
2.09237
2.13133
2.16575
2.19674
2.2271
2.26722
2.31935
2.35265
2.36647
2.37017
2.37033
2.37509
1.73629
1.78591
1.8239
1.84055
1.86734
1.91774
1.95262
1.93469
1.9352
1.95275
1.95685
1.95497
1.9703
2.00407
2.04115
2.07477
2.10598
2.13721
2.17862
2.23012
2.26207
2.2762
2.2812
2.28209
2.28673
1.65754
1.71018
1.74242
1.75591
1.78437
1.83659
1.86246
1.84216
1.84569
1.8634
1.86794
1.86912
1.88674
1.91993
1.95524
1.98821
2.01967
2.05178
2.09423
2.14467
2.17577
2.19071
2.19722
2.19886
2.20326
1.58435
1.6395
1.66421
1.67524
1.70691
1.75911
1.77569
1.75496
1.76108
1.77878
1.78409
1.78817
1.80753
1.83976
1.87349
1.90603
1.93771
1.97053
2.0137
2.06284
2.09362
2.10958
2.1174
2.11985
2.12453
1.51599
1.57175
1.58965
1.59924
1.63454
1.68434
1.69235
1.67285
1.68122
1.69877
1.70503
1.71179
1.73246
1.76349
1.79589
1.82811
1.85995
1.89345
1.93719
1.98484
2.01538
2.03233
2.04125
2.04454
2.04975
1.45241
1.5057
1.51852
1.5284
1.56683
1.61227
1.61264
1.59532
1.60563
1.62309
1.63055
1.63974
1.66128
1.691
1.72233
1.7544
1.7864
1.82054
1.86468
1.91082
1.94115
1.95895
1.96864
1.97258
1.97829
1.39378
1.44123
1.45032
1.46213
1.50341
1.54303
1.53662
1.52205
1.5341
1.55156
1.56032
1.57164
1.59369
1.62216
1.65266
1.68463
1.71682
1.75169
1.79622
1.84091
1.87087
1.88928
1.89957
1.90427
1.91054
1.3393
1.37863
1.38469
1.39973
1.4434
1.47655
1.46456
1.45291
1.46643
1.48395
1.49411
1.50723
1.52938
1.55672
1.58666
1.61865
1.65111
1.68675
1.73153
1.77489
1.80451
1.82337
1.83408
1.83947
1.84632
1.28811
1.31819
1.32182
1.34106
1.38578
1.41272
1.39651
1.38774
1.40244
1.42007
1.43157
1.4461
1.46807
1.49454
1.52417
1.5562
1.58898
1.6255
1.67051
1.71268
1.74191
1.76091
1.77186
1.77791
1.78543
1.23835
1.26026
1.26238
1.28624
1.3298
1.35092
1.33242
1.32641
1.34192
1.35969
1.37251
1.38815
1.40968
1.43542
1.46493
1.49712
1.53036
1.56781
1.61291
1.654
1.68291
1.70199
1.71313
1.71961
1.72758
1.18928
1.20512
1.20748
1.23534
1.27549
1.29063
1.27181
1.26855
1.28467
1.30264
1.31669
1.33307
1.35402
1.37927
1.40885
1.44122
1.47497
1.51345
1.55864
1.59881
1.62743
1.64649
1.65783
1.6648
1.67331
1.14106
1.15263
1.15708
1.18768
1.22312
1.232
1.21428
1.21388
1.23054
1.24873
1.26384
1.28072
1.30107
1.32597
1.35568
1.38829
1.42271
1.46233
1.50759
1.54693
1.57526
1.59427
1.60591
1.61344
1.62249
1.09404
1.10195
1.11018
1.14238
1.17285
1.17556
1.15963
1.16204
1.1793
1.19782
1.21379
1.23084
1.25063
1.27539
1.30536
1.33828
1.37344
1.41423
1.45955
1.4982
1.5262
1.54508
1.55688
1.56488
1.57446
1.04815
1.05288
1.06572
1.09877
1.12443
1.12161
1.10779
1.11284
1.13079
1.14966
1.16622
1.18324
1.20271
1.22755
1.25782
1.29105
1.32711
1.36924
1.4147
1.45271
1.48021
1.4988
1.51065
1.51905
1.52921
1.00414
1.00682
1.02419
1.05683
1.07831
1.07102
1.05937
1.06658
1.08504
1.10418
1.12114
1.13794
1.15717
1.18214
1.2127
1.24635
1.28342
1.3268
1.37225
1.40959
1.43649
1.45479
1.4667
1.47553
1.48628
0.959635
0.961989
0.983619
1.01472
1.03258
1.02206
1.01277
1.02201
1.04128
1.06099
1.07832
1.09491
1.11425
1.13983
1.17114
1.20573
1.24437
1.28935
1.33506
1.37196
1.39836
1.41631
1.42809
1.4371
1.44833
0.927238
0.929523
0.952564
0.980601
0.994239
0.982415
0.975332
0.985402
1.00415
1.02318
1.03997
1.05591
1.07497
1.10033
1.13117
1.16535
1.20386
1.24821
1.29198
1.32679
1.35177
1.36911
1.38106
1.39082
1.4027
0.844526
0.856631
0.888512
0.916428
0.924597
0.909959
0.905386
0.919263
0.942084
0.964305
0.982633
0.99913
1.01982
1.04853
1.08396
1.12409
1.17051
1.22327
1.27357
1.3127
1.34022
1.35864
1.37068
1.38059
1.39367
0.996798
1.00938
1.0194
1.02627
1.03204
1.03914
1.0504
1.06358
1.07693
1.09076
1.10638
1.12481
1.14637
1.17061
1.19691
1.22464
1.25249
1.27798
1.29878
1.31462
1.32683
1.3368
1.34545
1.35212
1.35797
0.0341091
0.345718
0.674273
0.656148
0.666152
0.673463
0.679118
0.68349
0.686896
0.689558
0.691668
0.69337
0.694767
0.69593
0.696914
0.697774
0.698572
0.699363
0.700196
0.701115
0.70215
0.703319
0.704625
0.70607
0.707659
0.709395
0.711281
0.713311
0.715475
0.717756
0.720131
0.722574
0.725061
0.727567
0.730068
0.732543
0.734974
0.737345
0.739637
0.741842
0.743951
0.745956
0.747857
0.749654
0.751349
0.752956
0.754472
0.75592
0.757306
0.758656
0.759985
0.761329
0.762714
0.764157
0.765693
0.767355
0.769228
0.771466
0.774313
0.778105
0.783245
0.790177
0.799348
0.81111
0.825675
0.843019
0.862799
0.88435
0.906869
0.930169
0.955531
0.985815
1.02384
1.07116
1.12614
1.18276
1.233
1.27223
1.29838
1.31274
1.32127
1.32794
1.33385
1.33963
1.3462
1.35414
1.36383
1.37505
1.38649
1.39659
1.40434
1.40918
1.41074
1.40897
1.40428
1.39749
1.38918
1.37866
1.36704
3.54259
0.273444
0.68772
0.696058
0.69829
0.70303
0.706505
0.70878
0.710123
0.71069
0.710609
0.709989
0.708933
0.707502
0.705713
0.703579
0.701128
0.698388
0.695379
0.692131
0.688683
0.685074
0.681335
0.677471
0.673491
0.669396
0.665215
0.660969
0.656683
0.652387
0.648105
0.64386
0.639674
0.635556
0.631512
0.627555
0.623688
0.619927
0.616277
0.612749
0.609349
0.606083
0.602956
0.599959
0.597097
0.594374
0.59179
0.589357
0.587084
0.584967
0.583003
0.58121
0.5796
0.578165
0.576928
0.575861
0.574954
0.574178
0.573486
0.572836
0.572152
0.571341
0.570315
0.569001
0.567458
0.566292
0.567455
0.573905
0.585931
0.597693
0.601698
0.600851
0.606873
0.633158
0.68906
0.789025
0.931877
1.08983
1.21987
1.28774
1.29167
1.27873
1.27089
1.268
1.26965
1.27541
1.28597
1.30482
1.33285
1.36542
1.39805
1.42799
1.45275
1.46923
1.47459
1.4686
1.45366
1.4334
1.41201
2.35039
0.268293
0.697427
0.725937
0.72628
0.729391
0.732196
0.733985
0.734985
0.735363
0.735227
0.734663
0.733766
0.732615
0.731242
0.729654
0.72787
0.725921
0.723822
0.721591
0.719245
0.716813
0.714337
0.711844
0.709336
0.706792
0.704217
0.701623
0.69902
0.696421
0.693839
0.691292
0.688799
0.686368
0.683996
0.681681
0.679425
0.677233
0.675107
0.673057
0.671089
0.669213
0.667432
0.665743
0.664146
0.662643
0.661232
0.659924
0.65872
0.657631
0.656666
0.655828
0.65513
0.654588
0.654216
0.654033
0.654039
0.654229
0.654609
0.655182
0.655974
0.657015
0.658356
0.660036
0.662025
0.664227
0.667097
0.673185
0.685937
0.703446
0.717238
0.723302
0.729745
0.75091
0.794474
0.872601
0.992327
1.13524
1.26026
1.34515
1.36176
1.35326
1.345
1.33976
1.33783
1.33967
1.34569
1.35834
1.37899
1.40352
1.42818
1.45058
1.46846
1.47901
1.47972
1.47148
1.45682
1.43831
1.41906
2.15954
0.254821
0.710323
0.762664
0.761806
0.762869
0.764644
0.765668
0.766019
0.765866
0.765307
0.764408
0.763236
0.761865
0.760336
0.758641
0.756783
0.754785
0.752656
0.750415
0.748069
0.745635
0.743145
0.740644
0.738141
0.735609
0.733043
0.730455
0.727856
0.725256
0.722669
0.720109
0.717597
0.715149
0.71276
0.710424
0.708142
0.705918
0.703756
0.701659
0.699636
0.697695
0.695838
0.694068
0.692388
0.690798
0.689299
0.687895
0.686585
0.685377
0.684287
0.683329
0.682509
0.681839
0.681335
0.681015
0.680893
0.68096
0.681209
0.681631
0.682217
0.682966
0.683891
0.685009
0.686331
0.687893
0.690101
0.694886
0.705654
0.721905
0.73646
0.742677
0.747288
0.764589
0.802825
0.874255
0.993764
1.13997
1.28156
1.38501
1.42172
1.4166
1.40824
1.40197
1.39822
1.3979
1.40192
1.4132
1.43328
1.45773
1.4824
1.50472
1.52231
1.532
1.53095
1.52066
1.50419
1.48446
1.46463
2.02397
0.256906
0.723676
0.801886
0.801376
0.800505
0.801359
0.801819
0.801731
0.801261
0.80051
0.799532
0.798372
0.79709
0.795729
0.794273
0.792702
0.791034
0.789271
0.787419
0.785478
0.783458
0.78138
0.779285
0.77719
0.775064
0.772889
0.770673
0.768424
0.766153
0.763868
0.76158
0.75931
0.757078
0.754884
0.752723
0.750592
0.748499
0.746446
0.744437
0.74248
0.740582
0.738751
0.736992
0.73531
0.733708
0.732189
0.73076
0.729425
0.728182
0.727046
0.726035
0.725161
0.724433
0.723859
0.723462
0.723259
0.723258
0.723452
0.723834
0.724399
0.725152
0.726105
0.727283
0.728693
0.730317
0.732349
0.73625
0.745507
0.761474
0.778183
0.786611
0.790492
0.803706
0.836672
0.899416
1.01076
1.15306
1.30356
1.42106
1.48206
1.48184
1.4747
1.46759
1.46165
1.4584
1.45939
1.46792
1.48566
1.50813
1.53096
1.5515
1.56718
1.57456
1.57089
1.55847
1.54091
1.52115
1.50191
2.03797
0.262907
0.738626
0.843947
0.844811
0.842016
0.841911
0.841843
0.841362
0.840612
0.839701
0.838672
0.837552
0.836387
0.835212
0.834007
0.832734
0.831389
0.829973
0.828483
0.826909
0.825254
0.823524
0.821752
0.819969
0.818147
0.816248
0.814281
0.812253
0.810171
0.808045
0.805884
0.803704
0.801529
0.799372
0.797224
0.795085
0.792963
0.790861
0.788789
0.786753
0.784762
0.782828
0.780955
0.77915
0.777413
0.775753
0.774182
0.7727
0.771307
0.77001
0.768827
0.767776
0.766873
0.766132
0.765569
0.76521
0.765072
0.765154
0.765443
0.765936
0.766627
0.767523
0.768642
0.77
0.771588
0.773498
0.776731
0.784416
0.799306
0.817104
0.82795
0.831836
0.841658
0.870279
0.926132
1.02778
1.1691
1.32563
1.4538
1.53444
1.54621
1.54234
1.53611
1.52855
1.52252
1.52071
1.52685
1.54274
1.56364
1.58493
1.60383
1.61756
1.62238
1.61585
1.60116
1.58257
1.56283
1.54415
2.16886
0.29398
0.754775
0.888609
0.891653
0.886944
0.885851
0.885307
0.884499
0.883539
0.882533
0.881524
0.880517
0.879535
0.878616
0.877729
0.876814
0.875856
0.874839
0.873757
0.872588
0.871325
0.869966
0.868535
0.867067
0.865536
0.863899
0.86216
0.860326
0.858401
0.856397
0.854325
0.852202
0.850052
0.847888
0.845707
0.843511
0.84131
0.839111
0.836925
0.834762
0.832628
0.830533
0.828485
0.826488
0.824553
0.82269
0.820916
0.819239
0.817664
0.81619
0.81483
0.8136
0.812529
0.811626
0.810903
0.810387
0.810103
0.810057
0.810245
0.81066
0.811292
0.812139
0.813218
0.814546
0.816111
0.817945
0.820697
0.827004
0.84045
0.858753
0.872275
0.876968
0.883944
0.90879
0.957823
1.04971
1.18947
1.34832
1.48558
1.58314
1.61194
1.61071
1.60678
1.59825
1.58968
1.58505
1.58852
1.60229
1.62148
1.64112
1.65822
1.66975
1.67171
1.66218
1.64544
1.62618
1.60675
1.58874
2.41284
0.311904
0.772237
0.935831
0.94168
0.935013
0.932869
0.931878
0.930793
0.929669
0.928627
0.927694
0.926858
0.92612
0.925505
0.924977
0.924459
0.923917
0.923329
0.922672
0.921919
0.921055
0.920071
0.918983
0.917815
0.916539
0.915121
0.913565
0.911877
0.910064
0.908138
0.90611
0.903993
0.901798
0.899539
0.897233
0.894892
0.892534
0.890171
0.887814
0.885473
0.883159
0.880884
0.878653
0.876473
0.874354
0.872303
0.870333
0.868463
0.866701
0.865047
0.863502
0.86209
0.860833
0.85975
0.858856
0.85817
0.857716
0.857521
0.857587
0.857903
0.858458
0.859246
0.860275
0.861562
0.863102
0.864891
0.867321
0.87246
0.88417
0.902329
0.918319
0.924626
0.929548
0.949775
0.993514
1.07682
1.2117
1.37115
1.5172
1.62826
1.67726
1.6786
1.67892
1.6707
1.65999
1.65249
1.65319
1.66483
1.68235
1.70027
1.71549
1.72463
1.72345
1.71094
1.69234
1.67253
1.65349
1.63618
2.77313
0.222511
0.791416
0.985578
0.994732
0.986014
0.982754
0.981321
0.980002
0.978767
0.977737
0.976932
0.976325
0.975891
0.975632
0.975494
0.975393
0.975285
0.975133
0.974907
0.974572
0.974104
0.973489
0.972712
0.971753
0.970616
0.969308
0.967835
0.966207
0.964431
0.962519
0.960484
0.958339
0.956104
0.953791
0.951413
0.948984
0.946527
0.944049
0.941564
0.939086
0.936626
0.934195
0.9318
0.929454
0.927162
0.924933
0.922776
0.920707
0.918751
0.91691
0.915182
0.913578
0.912126
0.91085
0.909771
0.908901
0.908268
0.907902
0.907819
0.908011
0.908472
0.90919
0.910163
0.911402
0.912909
0.914667
0.916889
0.921094
0.931009
0.948404
0.966325
0.974951
0.978749
0.99397
1.03359
1.10956
1.23494
1.39444
1.54907
1.66995
1.7393
1.74728
1.75211
1.74572
1.7335
1.72294
1.72055
1.73009
1.74606
1.76223
1.77547
1.78214
1.77774
1.76227
1.74197
1.72178
1.70317
1.68647
3.15054
0.112082
0.813521
1.03794
1.05058
1.0397
1.03525
1.03336
1.03183
1.03051
1.02953
1.02889
1.02854
1.02844
1.02851
1.02868
1.02892
1.02915
1.02935
1.02945
1.02944
1.02929
1.02897
1.02847
1.02778
1.02689
1.0258
1.02452
1.02306
1.02142
1.01961
1.01765
1.01555
1.01333
1.01101
1.0086
1.00612
1.00358
1.00101
0.998421
0.995819
0.993223
0.990646
0.988096
0.985587
0.983129
0.980725
0.978388
0.976124
0.973966
0.971929
0.970012
0.968215
0.966559
0.965074
0.963791
0.962726
0.961898
0.961341
0.961081
0.961125
0.961469
0.962096
0.962998
0.964182
0.96565
0.967381
0.969473
0.972974
0.981198
0.997256
1.01639
1.02778
1.03149
1.04249
1.07713
1.14606
1.2607
1.4206
1.58158
1.71078
1.79803
1.81758
1.82536
1.82296
1.80986
1.79628
1.79071
1.79835
1.81291
1.82726
1.83846
1.84267
1.83505
1.81669
1.79482
1.77437
1.7562
1.74014
3.45727
0.0625847
0.841558
1.09294
1.10842
1.0954
1.08969
1.08728
1.08547
1.08402
1.08303
1.0825
1.08236
1.08253
1.08294
1.08352
1.08417
1.08485
1.08549
1.08604
1.08647
1.08674
1.08683
1.08671
1.08637
1.0858
1.085
1.08398
1.08274
1.08129
1.07964
1.0778
1.0758
1.07365
1.07136
1.06896
1.06646
1.06388
1.06125
1.05857
1.05587
1.05315
1.05044
1.04775
1.04508
1.04246
1.03988
1.03737
1.03491
1.03255
1.03031
1.02819
1.02619
1.02433
1.02263
1.02112
1.01984
1.01881
1.01804
1.01758
1.01745
1.01764
1.01816
1.01897
1.02009
1.0215
1.0232
1.02521
1.02821
1.03495
1.04926
1.06884
1.08304
1.08769
1.09547
1.12431
1.18688
1.29055
1.44953
1.61515
1.75178
1.85479
1.88977
1.89875
1.90218
1.88884
1.87241
1.86385
1.86982
1.88312
1.89556
1.90461
1.90631
1.89538
1.87429
1.85109
1.83053
1.81289
1.79748
3.72523
0.0053192
0.874621
1.15101
1.16835
1.15307
1.14602
1.143
1.14086
1.13926
1.13828
1.1379
1.13802
1.13854
1.13936
1.14038
1.14152
1.1427
1.14386
1.14493
1.14587
1.14664
1.1472
1.14753
1.14762
1.14745
1.14702
1.14633
1.14538
1.14419
1.14276
1.14112
1.13927
1.13723
1.13503
1.13268
1.1302
1.12761
1.12495
1.12221
1.11943
1.11661
1.11378
1.11095
1.10813
1.10535
1.1026
1.09991
1.09727
1.09471
1.09225
1.08991
1.08771
1.08563
1.0837
1.08197
1.08045
1.07919
1.0782
1.07752
1.07718
1.0772
1.07757
1.07827
1.0793
1.08066
1.08232
1.08427
1.08693
1.09242
1.1048
1.12406
1.14072
1.14721
1.15289
1.17638
1.23158
1.32634
1.4796
1.64926
1.79382
1.90928
1.96253
1.97338
1.98275
1.97054
1.95186
1.94058
1.94478
1.95687
1.96737
1.97418
1.9733
1.95908
1.93534
1.91087
1.89016
1.87286
1.85788
3.96724
0.10411
0.914124
1.21188
1.23042
1.21273
1.2043
1.20061
1.19811
1.19635
1.19539
1.19519
1.19561
1.19652
1.19781
1.19935
1.20105
1.20281
1.20456
1.20623
1.20776
1.2091
1.21022
1.21109
1.21169
1.212
1.21201
1.21172
1.21115
1.21028
1.20915
1.20775
1.20611
1.20424
1.20217
1.19992
1.1975
1.19495
1.19228
1.18952
1.18668
1.18378
1.18084
1.17789
1.17494
1.172
1.16909
1.16622
1.1634
1.16064
1.15796
1.1554
1.15297
1.15068
1.14852
1.14654
1.14478
1.14327
1.14204
1.14112
1.14054
1.14035
1.14054
1.14111
1.14203
1.1433
1.14492
1.14683
1.14926
1.15377
1.16422
1.18247
1.20098
1.20991
1.21462
1.23361
1.28176
1.36799
1.51084
1.68341
1.83734
1.96171
2.03458
2.05007
2.06418
2.055
2.03493
2.02092
2.02332
2.03452
2.04323
2.04765
2.04409
2.02649
1.99999
1.97421
1.9533
1.9363
1.92171
4.18527
0.368065
0.958588
1.27597
1.29471
1.27443
1.26457
1.26017
1.25728
1.25536
1.25446
1.25448
1.25525
1.25662
1.25844
1.26057
1.2629
1.26532
1.26774
1.27008
1.27228
1.27428
1.27604
1.27752
1.27871
1.27957
1.2801
1.2803
1.28016
1.2797
1.27892
1.27784
1.27647
1.27484
1.27296
1.27085
1.26855
1.26607
1.26344
1.26067
1.25781
1.25486
1.25185
1.24879
1.24571
1.24263
1.23956
1.23652
1.23351
1.23055
1.22767
1.22488
1.22221
1.21969
1.2173
1.21507
1.21305
1.21127
1.20978
1.2086
1.20777
1.20733
1.2073
1.2077
1.20849
1.20966
1.2112
1.21307
1.21535
1.21912
1.22779
1.24451
1.26414
1.27574
1.28051
1.29589
1.33801
1.41571
1.5463
1.71821
1.88158
2.01294
2.10553
2.12967
2.14635
2.14239
2.12151
2.10477
2.10542
2.11627
2.12346
2.12536
2.11894
2.09792
2.06873
2.04161
2.02033
2.00349
1.98916
4.38614
0.493738
1.00659
1.3437
1.36128
1.33822
1.32691
1.32175
1.31846
1.31642
1.31561
1.31589
1.31707
1.31896
1.32137
1.32417
1.3272
1.33034
1.33351
1.3366
1.33955
1.34229
1.34476
1.34694
1.34879
1.35029
1.35142
1.35218
1.35256
1.35258
1.35223
1.35154
1.35051
1.34917
1.34754
1.34564
1.3435
1.34114
1.33859
1.33588
1.33302
1.33005
1.32698
1.32385
1.32066
1.31745
1.31423
1.31103
1.30784
1.30469
1.30159
1.29858
1.29567
1.2929
1.29027
1.2878
1.2855
1.28344
1.28167
1.28021
1.2791
1.27839
1.27811
1.27829
1.27891
1.27995
1.2814
1.28321
1.28539
1.28863
1.29574
1.31059
1.33058
1.34476
1.35041
1.36302
1.40023
1.46924
1.58736
1.75461
1.9274
2.06709
2.17554
2.21219
2.22999
2.23228
2.21103
2.19188
2.19128
2.2026
2.20865
2.20782
2.1983
2.17387
2.14204
2.11337
2.09138
2.07435
2.0602
4.56921
0.246099
1.05964
1.41488
1.43013
1.40414
1.39139
1.38546
1.38178
1.37963
1.37895
1.37956
1.38122
1.38368
1.38676
1.39028
1.39408
1.39803
1.40202
1.40593
1.4097
1.41325
1.41652
1.41948
1.42207
1.42429
1.4261
1.4275
1.42848
1.42905
1.42921
1.42898
1.42837
1.42739
1.42608
1.42445
1.42253
1.42036
1.41794
1.41531
1.4125
1.40954
1.40645
1.40327
1.4
1.39668
1.39333
1.38997
1.38661
1.38327
1.37998
1.37674
1.37359
1.37056
1.36768
1.36495
1.36238
1.36003
1.35795
1.35619
1.35479
1.35378
1.35322
1.35313
1.35354
1.35442
1.35576
1.35749
1.35959
1.36246
1.36828
1.38113
1.40074
1.41718
1.42433
1.43489
1.46827
1.52864
1.63631
1.79286
1.9745
2.12269
2.24402
2.29683
2.31594
2.32393
2.30327
2.28219
2.28092
2.29353
2.29893
2.2953
2.28249
2.25468
2.22018
2.18975
2.16672
2.14912
2.1348
4.73725
0.33224
1.11894
1.48929
1.5013
1.47231
1.45812
1.45142
1.44735
1.44513
1.44465
1.44565
1.44783
1.45094
1.45475
1.45906
1.4637
1.46851
1.47338
1.47819
1.48285
1.48729
1.49144
1.49524
1.49867
1.50168
1.50425
1.50638
1.50805
1.50925
1.51
1.51031
1.51019
1.50966
1.50874
1.50745
1.50581
1.50387
1.50165
1.49916
1.49645
1.49355
1.49048
1.48728
1.48396
1.48056
1.47709
1.47359