/*--------------------------------*- C++ -*----------------------------------*\
  =========                 |
  \\      /  F ield         | OpenFOAM: The Open Source CFD Toolbox
   \\    /   O peration     | Website:  https://openfoam.org
    \\  /    A nd           | Version:  9
     \\/     M anipulation  |
\*---------------------------------------------------------------------------*/
FoamFile
{
    format      ascii;
    class       volScalarField;
    location    "3000";
    object      p;
}
// * * * * * * * * * * * * * * * * * * * * * * * * * * * * * * * * * * * * * //

dimensions      [0 2 -2 0 0 0 0];

internalField   nonuniform List<scalar> 
13354
(
-0.567925
-0.609907
-0.618333
-0.594438
-0.56193
-0.544458
-0.574943
-0.657306
-0.779441
-0.907406
-0.986763
-0.99452
-0.923762
-0.470654
-0.496043
-0.495312
-0.47086
-0.427626
-0.388485
-0.381143
-0.415889
-0.486149
-0.576576
-0.664326
-0.714902
-0.683706
-0.357787
-0.368138
-0.355515
-0.321205
-0.276623
-0.234767
-0.209155
-0.214105
-0.24334
-0.284037
-0.334775
-0.383847
-0.387257
-0.23718
-0.237647
-0.222008
-0.190609
-0.151204
-0.110662
-0.0748755
-0.0579432
-0.062706
-0.077984
-0.106595
-0.150656
-0.178962
-0.144987
-0.137903
-0.120082
-0.0911495
-0.054286
-0.0144049
0.0214941
0.0479284
0.0566433
0.0519725
0.0343508
-0.00264183
-0.0398874
-0.0808129
-0.0678379
-0.0471496
-0.0184808
0.0165757
0.0545767
0.0893967
0.116174
0.131731
0.133309
0.121749
0.0927396
0.0571888
-0.0342279
-0.0174817
0.00497563
0.0331598
0.0659003
0.100727
0.133437
0.15902
0.17559
0.181641
0.175146
0.153898
0.12365
-0.000340614
0.0181256
0.0408709
0.0677093
0.0976956
0.129083
0.159003
0.183597
0.19985
0.20759
0.205728
0.191917
0.167146
0.0232844
0.0419407
0.063868
0.0888002
0.115968
0.144075
0.171167
0.194472
0.210956
0.219607
0.220752
0.212968
0.193633
0.0391127
0.0570538
0.0775313
0.100219
0.124555
0.149566
0.173904
0.195591
0.212317
0.221882
0.225267
0.221665
0.207727
0.049408
0.0661021
0.0847457
0.105054
0.126576
0.148632
0.170247
0.190013
0.206319
0.217196
0.221873
0.221801
0.212679
0.0557368
0.0709238
0.0875898
0.105493
0.124313
0.14354
0.162468
0.180111
0.195326
0.206845
0.212825
0.215118
0.210603
0.0591535
0.0727565
0.0874647
0.103086
0.119373
0.135958
0.152331
0.167835
0.181629
0.192926
0.20008
0.203574
0.203211
0.060452
0.0724988
0.0853424
0.0988573
0.112854
0.127055
0.141102
0.154569
0.166862
0.177414
0.185208
0.189399
0.191927
0.0602045
0.0707927
0.0819515
0.0935758
0.105526
0.117611
0.129606
0.141209
0.152033
0.161595
0.169454
0.174096
0.178192
0.0588432
0.068098
0.0777569
0.0877266
0.0979073
0.108169
0.118368
0.128305
0.137723
0.146218
0.153722
0.158564
0.163403
0.0567024
0.0647731
0.0731104
0.0816418
0.0902945
0.0990049
0.107673
0.116147
0.124273
0.131708
0.138614
0.143395
0.148521
0.0540223
0.0610475
0.0682421
0.075546
0.0829094
0.090296
0.09764
0.104837
0.111819
0.118276
0.124485
0.128994
0.134117
0.0510031
0.0571125
0.0633097
0.0695601
0.0758403
0.0821218
0.0883493
0.0944503
0.100419
0.105984
0.111488
0.115616
0.120547
0.0477598
0.0530745
0.0584307
0.0637961
0.0691533
0.0744896
0.0797826
0.084976
0.0900819
0.0948626
0.0996855
0.103392
0.107995
0.0444009
0.0490223
0.0536519
0.0582731
0.0628712
0.0674272
0.0719292
0.0763472
0.0807256
0.0848483
0.0890691
0.0923774
0.0965759
0.0409855
0.0450176
0.0490364
0.0530189
0.0569643
0.060873
0.0647404
0.0685258
0.0722793
0.0758334
0.0795263
0.0824932
0.0862836
0.0375695
0.0410791
0.0445731
0.0480316
0.0514415
0.054799
0.0581205
0.0613871
0.0646451
0.0677354
0.0709599
0.0736218
0.0770232
0.0341829
0.037248
0.0402842
0.0432785
0.0462357
0.0491552
0.0520343
0.0548546
0.0576821
0.0603965
0.0632458
0.0656582
0.068694
0.0308396
0.0335094
0.0361604
0.0387685
0.0413317
0.0438617
0.0463763
0.0488523
0.0513299
0.0537125
0.0562279
0.058433
0.0611702
0.0275659
0.0298866
0.032185
0.0344524
0.0366958
0.0389093
0.0411003
0.0432674
0.0454637
0.0475975
0.0498381
0.0518441
0.0543089
0.0243593
0.0263722
0.0283722
0.0303388
0.0322834
0.0342228
0.0361626
0.0380782
0.0400136
0.0419207
0.0439458
0.0458016
0.0480293
0.0212533
0.022981
0.0247021
0.0264124
0.0281118
0.0298001
0.0314966
0.0332018
0.0349417
0.0366571
0.0384724
0.0401766
0.0422196
0.0182529
0.0197361
0.0212129
0.0226771
0.0241482
0.0256333
0.0271293
0.028628
0.0301736
0.0317312
0.0333873
0.0349482
0.0367983
0.0153996
0.0166466
0.0179029
0.0191641
0.0204301
0.0217083
0.0230209
0.0243601
0.0257369
0.0271193
0.0286087
0.0300461
0.0317381
0.0127192
0.0137651
0.0148163
0.0158776
0.0169659
0.0180752
0.0192072
0.0203693
0.0215927
0.0228369
0.0241646
0.025443
0.0269668
0.0102493
0.0111066
0.0119854
0.0128764
0.0137861
0.0147278
0.0157122
0.0167216
0.0177723
0.0188517
0.0200292
0.0211698
0.022513
0.00804288
0.00873284
0.00944056
0.0101743
0.0109403
0.0117282
0.0125461
0.0134043
0.0143153
0.0152405
0.0162349
0.0172054
0.0183789
0.00613092
0.00667584
0.0072456
0.0078318
0.0084453
0.00909585
0.00977823
0.0104809
0.0112231
0.0119977
0.0128442
0.013654
0.0146247
0.00457588
0.00498598
0.0054216
0.00588631
0.00637343
0.0068796
0.00741656
0.00798853
0.00858889
0.00919743
0.0098669
0.0105272
0.0113356
0.00311207
0.00338838
0.00369571
0.00402078
0.00436076
0.00472739
0.0051231
0.00553341
0.00595804
0.00641543
0.0068967
0.00742031
0.00791965
0.00854954
0.000879153
0.00109911
0.00130902
0.00151291
0.0017124
0.00189024
0.00206029
0.00224335
0.00242046
0.00260345
0.00280986
0.00303907
0.00328662
0.00354464
0.00381772
0.004116
0.0044342
0.00476454
0.00510375
0.00549172
0.00587939
0.00636642
0.00109193
0.00124809
0.00139415
0.00153282
0.00166672
0.00177555
0.00187628
0.00198614
0.00209084
0.00220777
0.00234357
0.00248663
0.00264088
0.00281477
0.00299923
0.00318883
0.00339206
0.00362245
0.0038669
0.00413524
0.00439954
0.00476067
0.00148948
0.00160101
0.00170243
0.00179753
0.00188638
0.00194366
0.00199457
0.00205603
0.00210982
0.00216787
0.00224192
0.00232877
0.00241897
0.00251144
0.00261328
0.00273263
0.00285807
0.00299015
0.00313735
0.00332098
0.00351143
0.00376256
0.00204696
0.00213232
0.00220744
0.00227492
0.00233477
0.00235643
0.0023734
0.00239835
0.00241773
0.00244101
0.00246955
0.00249913
0.00253693
0.00258579
0.00263245
0.0026802
0.00274167
0.00282209
0.00290929
0.00300968
0.00312327
0.0032956
0.00272655
0.00280011
0.00286408
0.00291916
0.00296317
0.0029619
0.0029575
0.00295866
0.00294911
0.00293924
0.00293899
0.0029403
0.00293847
0.00293865
0.00294867
0.00296615
0.00298387
0.00300714
0.00304565
0.00310275
0.00316649
0.00325622
0.00348153
0.00355392
0.00361571
0.00366986
0.0037075
0.00368995
0.00367191
0.00365943
0.00363635
0.00360767
0.00358084
0.0035534
0.00353243
0.00351237
0.00348979
0.00346994
0.00346063
0.00345765
0.00345372
0.00345193
0.00345615
0.00347428
0.00416665
0.00425569
0.00433498
0.00440263
0.00446311
0.00450083
0.00447686
0.00444968
0.0044214
0.00438131
0.00433999
0.00430603
0.00426681
0.00422382
0.00418178
0.00414473
0.00410555
0.00406073
0.00401282
0.00396179
0.003909
0.00385961
0.00381506
0.0048841
0.00498264
0.00506917
0.00514564
0.00521683
0.00525585
0.00522603
0.00519216
0.00515571
0.00510754
0.00505446
0.00500304
0.00495205
0.00490212
0.00484533
0.00477921
0.004706
0.0046249
0.00453728
0.00444401
0.00434717
0.00425121
0.0041549
0.00549247
0.00559897
0.00569087
0.00577299
0.00584903
0.00588711
0.00585662
0.00581881
0.00577243
0.00571583
0.00565703
0.00559524
0.00552445
0.00544737
0.00536208
0.00526625
0.0051615
0.00504771
0.00492658
0.00479937
0.00466787
0.00453582
0.00440191
0.0059329
0.00603887
0.00612861
0.00620967
0.00628206
0.00631392
0.00628421
0.00624408
0.00619018
0.0061225
0.00604568
0.00596176
0.00586697
0.0057641
0.00565245
0.00553089
0.00540059
0.00526226
0.0051175
0.00496724
0.00481304
0.00465821
0.00450189
0.00616444
0.00625815
0.00633523
0.00640343
0.00646078
0.00647833
0.00644544
0.00639883
0.00633351
0.00625171
0.00615726
0.00605314
0.00593846
0.00581593
0.00568524
0.00554654
0.00540082
0.00524869
0.00509169
0.00493083
0.00476679
0.00460259
0.00443817
0.00618135
0.0062532
0.00630825
0.00635287
0.00638649
0.00638564
0.0063461
0.00628975
0.00621295
0.0061185
0.0060102
0.00589202
0.00576423
0.00562965
0.00548877
0.00534207
0.00519028
0.00503442
0.00487569
0.00471445
0.00455108
0.00438856
0.00422692
0.00600902
0.00605423
0.00608283
0.00610014
0.00610833
0.00609042
0.00604421
0.00597771
0.005891
0.00578698
0.00566922
0.00554225
0.00540761
0.00526792
0.00512382
0.00497637
0.00482635
0.00467421
0.00452079
0.00436645
0.00421107
0.00405719
0.00390506
0.00568529
0.00570366
0.00570593
0.00569722
0.0056837
0.00565393
0.00560228
0.0055275
0.00543365
0.00532315
0.00520034
0.00506998
0.00493368
0.00479428
0.00465284
0.00451007
0.00436648
0.00422274
0.00407937
0.00393599
0.00379232
0.00365097
0.00351195
0.00525004
0.00524441
0.00522392
0.005194
0.00516401
0.0051274
0.00507193
0.00499135
0.00489322
0.00478016
0.00465641
0.00452689
0.00439372
0.00425927
0.00412439
0.00399004
0.00385663
0.00372422
0.00359302
0.00346277
0.00333304
0.00320589
0.00308114
0.00473966
0.00471423
0.00467554
0.00462989
0.00458897
0.00454836
0.00448988
0.00440614
0.0043067
0.00419428
0.00407355
0.00394901
0.00382247
0.00369636
0.00357148
0.00344822
0.00332668
0.00320712
0.00308961
0.00297337
0.00285793
0.00274534
0.00263529
0.00418619
0.00414567
0.00409381
0.00403732
0.00398894
0.00394542
0.00388442
0.00379958
0.00370155
0.00359317
0.00347853
0.00336199
0.00324535
0.00313018
0.00301698
0.00290631
0.00279821
0.0026924
0.0025887
0.00248661
0.00238577
0.00228765
0.00219164
0.00361699
0.00356552
0.00350491
0.00344195
0.00338875
0.00334232
0.00327985
0.00319644
0.00310216
0.00300005
0.002894
0.0027875
0.00268187
0.00257876
0.00247854
0.00238111
0.00228625
0.00219398
0.00210415
0.00201589
0.0019288
0.00184428
0.00176168
0.00305672
0.00299883
0.00293359
0.00286748
0.00281169
0.00276328
0.00270056
0.0026202
0.00253148
0.0024371
0.00234032
0.00224455
0.00215088
0.00206003
0.00197216
0.00188746
0.00180573
0.00172652
0.00164941
0.00157388
0.0014998
0.001428
0.00135751
0.00252463
0.00246414
0.00239812
0.00233208
0.00227547
0.00222578
0.00216443
0.00208875
0.00200655
0.00192081
0.00183432
0.00174939
0.00166683
0.00158765
0.00151186
0.00143913
0.00136907
0.00130155
0.00123625
0.0011725
0.00110993
0.00104927
0.00098974
0.00203486
0.00197513
0.00191116
0.00184773
0.00179271
0.00174343
0.00168493
0.00161519
0.00154084
0.00146416
0.00138737
0.00131287
0.00124119
0.00117269
0.00110732
0.00104511
0.000985768
0.000928761
0.0008736
0.000819875
0.000767516
0.000716839
0.000666791
0.00159658
0.00154071
0.00148167
0.00142317
0.0013713
0.00132435
0.00127063
0.00120802
0.00114184
0.00107443
0.00100753
0.000942716
0.000880544
0.000821674
0.000765989
0.000713108
0.000662678
0.00061451
0.000568325
0.000523534
0.000479804
0.000437399
0.000395501
0.00126021
0.00121321
0.00116314
0.00111085
0.00105917
0.00101246
0.000969584
0.000921686
0.000867041
0.000809705
0.000751305
0.000693472
0.000637798
0.000584633
0.000534185
0.000486401
0.000441396
0.000398904
0.000358403
0.000319465
0.000281775
0.000245306
0.000210075
0.000175086
0.00092521
0.000885028
0.000842542
0.000798362
0.000754429
0.000714012
0.000676805
0.000636105
0.000590079
0.000541745
0.000492707
0.000444052
0.000396858
0.000351707
0.000309131
0.000268998
0.000231106
0.000195157
0.000161059
0.000128609
9.73504e-05
6.69996e-05
3.75102e-05
8.18829e-06
0.000672013
0.00064107
0.000608514
0.000574344
0.000538946
0.000503579
0.000470463
0.000439726
0.000406725
0.000369758
0.00033056
0.000290326
0.000250301
0.000211537
0.000174303
0.000138831
0.000105179
7.36057e-05
4.38667e-05
1.56529e-05
-1.13874e-05
-3.74722e-05
-6.25409e-05
-8.67794e-05
-0.000111003
0.000429219
0.000405388
0.000380521
0.000354619
0.000327937
0.000301244
0.000275914
0.000252157
0.000226881
0.000198405
0.000168052
0.000136762
0.000105211
7.41028e-05
4.40407e-05
1.54752e-05
-1.16516e-05
-3.73655e-05
-6.18641e-05
-8.50408e-05
-0.000107005
-0.00012809
-0.000148472
-0.000168359
-0.000188365
0.000230799
0.000213828
0.00019626
0.000178105
0.000159513
0.000140951
0.000123207
0.000106378
8.84223e-05
6.80962e-05
4.58847e-05
2.2402e-05
-1.46073e-06
-2.51524e-05
-4.83797e-05
-7.09349e-05
-9.26385e-05
-0.000113152
-0.000132642
-0.000151208
-0.000169094
-0.000186433
-0.000203038
-0.000219115
-0.000235327
7.60574e-05
6.53243e-05
5.4343e-05
4.31163e-05
3.17286e-05
2.04521e-05
9.7062e-06
-5.49455e-07
-1.16979e-05
-2.46916e-05
-3.93674e-05
-5.53324e-05
-7.21169e-05
-8.93308e-05
-0.000106351
-0.000122911
-0.000139002
-0.000154556
-0.000169686
-0.000184112
-0.000197863
-0.000211181
-0.000224098
-0.00023684
-0.000249887
-3.97175e-05
-4.4914e-05
-5.01335e-05
-5.53864e-05
-6.06267e-05
-6.57015e-05
-7.04173e-05
-7.49005e-05
-8.0123e-05
-8.68081e-05
-9.495e-05
-0.000104356
-0.000114737
-0.000125769
-0.000137065
-0.000148526
-0.000159887
-0.00017088
-0.000181623
-0.000192042
-0.000202307
-0.000212495
-0.000222317
-0.000231898
-0.000241788
-0.000118848
-0.000119287
-0.000119614
-0.000119844
-0.000119959
-0.00011988
-0.000119535
-0.000119096
-0.000119268
-0.000120606
-0.000123175
-0.000126901
-0.000131614
-0.000137112
-0.000143135
-0.000149571
-0.00015622
-0.000163041
-0.000170052
-0.000176907
-0.000183614
-0.000190333
-0.000196986
-0.000203753
-0.000211009
-0.000165774
-0.000162156
-0.000158372
-0.000154441
-0.00015036
-0.000146094
-0.000141638
-0.000137169
-0.000133206
-0.00013018
-0.000128188
-0.000127218
-0.000127179
-0.000127949
-0.000129356
-0.000131315
-0.000133691
-0.000136446
-0.000139551
-0.000142816
-0.000146361
-0.000150198
-0.000154026
-0.000157885
-0.000162208
-0.000185695
-0.000178684
-0.000171506
-0.000164186
-0.000156731
-0.000149133
-0.000141417
-0.000133746
-0.000126504
-0.000120023
-0.000114411
-0.000109691
-0.000105816
-0.000102715
-0.000100277
-9.8439e-05
-9.71085e-05
-9.6252e-05
-9.5853e-05
-9.58038e-05
-9.61662e-05
-9.69283e-05
-9.79306e-05
-9.92809e-05
-0.000101198
-0.000183136
-0.000173376
-0.000163478
-0.000153471
-0.000143364
-0.000133162
-0.000122897
-0.000112708
-0.000102876
-9.36591e-05
-8.51658e-05
-7.74297e-05
-7.04312e-05
-6.41336e-05
-5.84651e-05
-5.33762e-05
-4.88024e-05
-4.47133e-05
-4.10915e-05
-3.78842e-05
-3.51103e-05
-3.2782e-05
-3.08339e-05
-2.92988e-05
-2.8379e-05
-0.00016726
-0.00015541
-0.000143489
-0.000131522
-0.000119528
-0.000107512
-9.55047e-05
-8.36192e-05
-7.20643e-05
-6.10323e-05
-5.06221e-05
-4.08663e-05
-3.17597e-05
-2.32802e-05
-1.53829e-05
-8.02554e-06
-1.1608e-06
5.24218e-06
1.12008e-05
1.67464e-05
2.18758e-05
2.65646e-05
3.08636e-05
3.47265e-05
3.81028e-05
-0.000140086
-0.000126726
-0.00011335
-9.99822e-05
-8.66413e-05
-7.33308e-05
-6.00837e-05
-4.69869e-05
-3.41897e-05
-2.18347e-05
-1.00026e-05
1.27015e-06
1.19832e-05
2.21518e-05
3.18062e-05
4.09827e-05
4.97208e-05
5.80439e-05
6.59727e-05
7.35346e-05
8.07356e-05
8.75633e-05
9.40149e-05
0.000100095
0.0001057
-0.000112496
-9.82909e-05
-8.41501e-05
-7.0089e-05
-5.61262e-05
-4.22655e-05
-2.85392e-05
-1.5006e-05
-1.76921e-06
1.10677e-05
2.34386e-05
3.53153e-05
4.66969e-05
5.75967e-05
6.80378e-05
7.80529e-05
8.76741e-05
9.69288e-05
0.000105835
0.000114419
0.000122698
0.000130659
0.000138324
0.000145665
0.000152716
-8.33417e-05
-6.87831e-05
-5.43404e-05
-4.00244e-05
-2.5849e-05
-1.18227e-05
2.03348e-06
1.56794e-05
2.90406e-05
4.20449e-05
5.46387e-05
6.68033e-05
7.85389e-05
8.98521e-05
0.000100766
0.000111307
0.000121505
0.000131385
0.000140972
0.000150291
0.000159362
0.000168187
0.000176772
0.00018512
0.000193216
-6.08838e-05
-4.64382e-05
-3.21635e-05
-1.8068e-05
-4.16558e-06
9.54029e-06
2.30322e-05
3.6285e-05
4.92491e-05
6.18729e-05
7.4122e-05
8.59827e-05
9.74571e-05
0.000108553
0.000119293
0.000129703
0.000139807
0.000149633
0.000159204
0.000168547
0.000177683
0.000186618
0.000195385
0.000203965
0.000212429
-4.25429e-05
-2.8565e-05
-1.47867e-05
-1.21454e-06
1.2142e-05
2.52813e-05
3.81902e-05
5.08516e-05
6.32324e-05
7.52985e-05
8.70266e-05
9.84095e-05
0.000109448
0.000120156
0.000130548
0.000140653
0.000150489
0.000160086
0.00016947
0.000178666
0.000187698
0.000196583
0.000205344
0.000213984
0.000222543
-3.18025e-05
-1.85202e-05
-5.46539e-06
7.36119e-06
1.99506e-05
3.23017e-05
4.44019e-05
5.62489e-05
6.78155e-05
7.90828e-05
9.0037e-05
0.000100676
0.000111003
0.000121033
0.000130779
0.000140267
0.000149517
0.000158554
0.000167405
0.000176095
0.00018465
0.000193087
0.000201439
0.000209706
0.000217957
-2.59356e-05
-1.34252e-05
-1.15383e-06
1.08811e-05
2.26721e-05
3.42176e-05
4.55107e-05
5.65513e-05
6.73232e-05
7.78113e-05
8.80125e-05
9.79291e-05
0.000107562
0.000116928
0.000126039
0.000134918
0.000143585
0.000152063
0.000160377
0.000168549
0.00017661
0.000184578
0.000192485
0.000200336
0.000208188
-2.77559e-05
-1.61727e-05
-4.83486e-06
6.26289e-06
1.71137e-05
2.77153e-05
3.80673e-05
4.81685e-05
5.80105e-05
6.75824e-05
7.68884e-05
8.59329e-05
9.47175e-05
0.00010326
0.000111571
0.000119669
0.000127577
0.000135311
0.000142897
0.000150356
0.000157715
0.000164996
0.000172233
0.000179429
0.000186641
-3.57919e-05
-2.51636e-05
-1.47742e-05
-4.624e-06
5.28516e-06
1.49478e-05
2.43674e-05
3.35456e-05
4.24739e-05
5.11508e-05
5.9581e-05
6.77705e-05
7.57252e-05
8.3458e-05
9.09821e-05
9.83127e-05
0.00010547
0.000112469
0.000119338
0.000126092
0.000132759
0.00013936
0.000145927
0.000152465
0.000159032
-4.99508e-05
-4.02822e-05
-3.08461e-05
-2.16436e-05
-1.26729e-05
-3.93805e-06
4.56362e-06
1.28364e-05
2.08749e-05
2.86777e-05
3.62538e-05
4.3608e-05
5.07489e-05
5.76898e-05
6.44405e-05
7.10137e-05
7.74294e-05
8.37026e-05
8.98553e-05
9.5905e-05
0.000101876
0.000107792
0.000113673
0.000119532
0.000125413
-7.02441e-05
-6.15718e-05
-5.31187e-05
-4.48881e-05
-3.68773e-05
-2.90853e-05
-2.15132e-05
-1.4157e-05
-7.01664e-06
-9.1268e-08
6.62713e-06
1.31422e-05
1.94656e-05
2.56105e-05
3.1582e-05
3.73943e-05
4.30622e-05
4.86018e-05
5.40312e-05
5.93665e-05
6.46286e-05
6.98392e-05
7.50193e-05
8.0177e-05
8.53662e-05
-9.6397e-05
-8.86488e-05
-8.11002e-05
-7.37578e-05
-6.6619e-05
-5.96818e-05
-5.29471e-05
-4.64126e-05
-4.00786e-05
-3.3941e-05
-2.79903e-05
-2.2223e-05
-1.66282e-05
-1.11972e-05
-5.92321e-06
-7.90724e-07
4.20843e-06
9.09125e-06
1.38758e-05
1.85739e-05
2.32036e-05
2.7785e-05
3.23368e-05
3.68659e-05
4.14119e-05
-0.000127686
-0.000120883
-0.000114264
-0.000107833
-0.000101586
-9.55228e-05
-8.96419e-05
-8.39425e-05
-7.84257e-05
-7.30862e-05
-6.79124e-05
-6.28998e-05
-5.80433e-05
-5.3332e-05
-4.87614e-05
-4.43198e-05
-3.99958e-05
-3.5777e-05
-3.1648e-05
-2.75987e-05
-2.36134e-05
-1.9673e-05
-1.57634e-05
-1.18786e-05
-7.97184e-06
-0.000162823
-0.00015694
-0.00015122
-0.000145669
-0.000140282
-0.000135057
-0.000129994
-0.000125092
-0.00012035
-0.000115764
-0.000111322
-0.000107022
-0.00010286
-9.88232e-05
-9.49095e-05
-9.11103e-05
-8.74139e-05
-8.38095e-05
-8.02876e-05
-7.68364e-05
-7.34438e-05
-7.00917e-05
-6.67705e-05
-6.34813e-05
-6.01743e-05
-0.000200488
-0.000195429
-0.000190514
-0.000185744
-0.000181116
-0.00017663
-0.000172286
-0.000168083
-0.000164021
-0.000160096
-0.000156297
-0.000152622
-0.000149066
-0.000145622
-0.000142286
-0.000139054
-0.000135912
-0.000132854
-0.000129871
-0.000126954
-0.00012409
-0.000121267
-0.000118481
-0.000115727
-0.000112971
-0.000240288
-0.000236101
-0.000232036
-0.000228093
-0.000224268
-0.000220563
-0.000216977
-0.00021351
-0.000210161
-0.000206926
-0.0002038
-0.000200775
-0.000197852
-0.000195025
-0.000192288
-0.000189642
-0.000187076
-0.000184581
-0.000182155
-0.000179786
-0.000177468
-0.000175193
-0.000172953
-0.000170747
-0.00016853
-0.000279118
-0.000275683
-0.000272342
-0.0002691
-0.000265956
-0.000262911
-0.000259965
-0.000257122
-0.000254377
-0.000251728
-0.000249169
-0.000246695
-0.000244308
-0.000242003
-0.000239774
-0.000237625
-0.000235546
-0.000233529
-0.000231572
-0.000229667
-0.000227808
-0.000225992
-0.000224219
-0.00022247
-0.000220744
-0.000319694
-0.000317056
-0.000314485
-0.000311989
-0.000309568
-0.000307224
-0.000304959
-0.000302774
-0.000300668
-0.000298638
-0.000296676
-0.000294784
-0.000292962
-0.000291205
-0.000289514
-0.000287887
-0.000286321
-0.00028481
-0.000283353
-0.000281944
-0.000280581
-0.000279262
-0.000277985
-0.000276737
-0.00027549
-0.000349695
-0.000347696
-0.000345746
-0.00034385
-0.000342009
-0.000340226
-0.000338503
-0.000336842
-0.000335242
-0.0003337
-0.000332212
-0.000330777
-0.000329399
-0.000328076
-0.000326808
-0.000325594
-0.000324432
-0.000323321
-0.000322257
-0.000321239
-0.000320266
-0.000319341
-0.000318461
-0.000317614
-0.000316781
-0.000367277
-0.000365825
-0.000364408
-0.00036303
-0.000361693
-0.000360399
-0.000359151
-0.000357952
-0.000356799
-0.00035569
-0.000354622
-0.000353598
-0.000352621
-0.000351691
-0.000350809
-0.000349974
-0.000349188
-0.000348449
-0.000347757
-0.00034711
-0.000346513
-0.00034597
-0.000345474
-0.000345013
-0.000344573
-0.000374238
-0.000373258
-0.000372299
-0.000371364
-0.000370457
-0.00036958
-0.000368739
-0.000367936
-0.000367167
-0.000366431
-0.000365726
-0.000365057
-0.000364427
-0.000363838
-0.000363291
-0.000362788
-0.000362331
-0.000361919
-0.000361553
-0.000361236
-0.000360975
-0.00036077
-0.000360617
-0.000360498
-0.000360404
-0.000364525
-0.000363952
-0.000363391
-0.000362847
-0.00036232
-0.000361817
-0.000361341
-0.000360892
-0.000360468
-0.000360065
-0.000359687
-0.000359338
-0.000359021
-0.000358741
-0.000358501
-0.000358303
-0.00035815
-0.000358043
-0.000357985
-0.000357983
-0.000358045
-0.00035817
-0.000358348
-0.000358564
-0.000358808
-0.000344119
-0.000343899
-0.000343677
-0.00034346
-0.000343251
-0.000343058
-0.000342884
-0.000342727
-0.000342587
-0.000342461
-0.000342355
-0.000342272
-0.000342218
-0.000342199
-0.000342219
-0.000342281
-0.000342389
-0.000342545
-0.000342758
-0.000343036
-0.000343385
-0.000343803
-0.000344276
-0.000344787
-0.00034533
-0.000300244
-0.000300456
-0.000300655
-0.000300849
-0.000301043
-0.000301246
-0.000301458
-0.000301677
-0.000301901
-0.00030213
-0.000302369
-0.000302627
-0.000302909
-0.00030322
-0.000303569
-0.000303958
-0.000304394
-0.000304883
-0.000305434
-0.000306059
-0.000306765
-0.000307544
-0.000308376
-0.000309245
-0.000310147
-0.000265478
-0.000266035
-0.000266555
-0.00026705
-0.000267528
-0.000267999
-0.000268466
-0.000268925
-0.000269377
-0.000269823
-0.000270272
-0.000270739
-0.000271225
-0.000271742
-0.000272296
-0.000272892
-0.00027354
-0.00027425
-0.000275033
-0.0002759
-0.000276856
-0.000277887
-0.00027897
-0.000280091
-0.000281247
-0.000104399
-0.000106794
-0.000109136
-0.000111424
-0.000113665
-0.000115863
-0.000118019
-0.000120126
-0.000122177
-0.00012418
-0.000126146
-0.000128086
-0.000130007
-0.000131922
-0.000133842
-0.000135776
-0.000137737
-0.000139746
-0.000141821
-0.000143971
-0.000146195
-0.000148477
-0.000150796
-0.000153139
-0.000155504
-0.000243023
-0.000246695
-0.000250115
-0.000253337
-0.000256364
-0.000259216
-0.000261901
-0.000264429
-0.000266795
-0.000269033
-0.000271164
-0.000273211
-0.000275197
-0.000277123
-0.00027901
-0.000280866
-0.000282722
-0.000284594
-0.000286494
-0.000288454
-0.000290473
-0.000292532
-0.00029463
-0.000296784
-0.000299004
0.00110887
0.00108309
0.00105668
0.00102977
0.00100251
0.000975099
0.000947664
0.000920276
0.000893111
0.000866218
0.000839677
0.000813522
0.000787828
0.00076257
0.000737801
0.000713552
0.0006899
0.000666786
0.000644212
0.000622239
0.00060088
0.000580122
0.000559919
0.000540224
0.000520861
-0.00402522
-0.00402658
-0.00402668
-0.00402561
-0.00402338
-0.0040201
-0.00401598
-0.00401105
-0.00400544
-0.00399928
-0.00399264
-0.00398554
-0.00397806
-0.00397024
-0.00396208
-0.00395361
-0.00394502
-0.00393646
-0.00392797
-0.00391958
-0.00391123
-0.00390288
-0.00389435
-0.0038848
-0.00387309
6.59107e-06
7.44784e-06
7.44227e-06
7.70186e-06
8.49979e-06
8.64026e-06
9.06965e-06
9.60028e-06
1.052e-05
1.19074e-05
1.3982e-05
1.69501e-05
2.10434e-05
2.64923e-05
3.35127e-05
4.22869e-05
5.29443e-05
6.55546e-05
8.0115e-05
9.65423e-05
0.000114672
0.000134261
0.000154987
0.000176455
0.000198207
0.000219735
0.000240494
0.000259918
0.000277425
0.000292421
0.000304312
0.000312509
0.000316451
0.000315618
0.000309518
0.0002977
0.000279784
0.000255419
0.000224333
0.000186329
0.000141282
8.91248e-05
2.98633e-05
-3.6391e-05
-0.0001095
-0.000189197
-0.00027523
-0.000367179
-0.000464676
-0.000567188
-0.000674184
-0.000785168
-0.000899498
-0.00101658
-0.00113581
-0.00125651
-0.00137808
-0.00149994
-0.00162149
-0.00174221
-0.00186155
-0.0019791
-0.00209435
-0.00220693
-0.00231659
-0.00242299
-0.0025259
-0.00262512
-0.00272056
-0.00281204
-0.00289952
-0.00298299
-0.00306237
-0.00313763
-0.00320869
-0.00327545
-0.00333779
-0.00339544
-0.00344812
-0.00349582
-0.00353881
-0.00357756
-0.00361254
-0.00364411
-0.00367249
-0.00369788
-0.00372049
-0.00374053
-0.00375816
-0.0037736
-0.00378713
-0.00379903
-0.00380953
-0.00381891
-0.00382747
-0.00383564
-0.00384394
-0.00385272
-0.00386194
2.15928e-05
2.33389e-05
2.46934e-05
2.29108e-05
2.25264e-05
2.12376e-05
1.99895e-05
1.81678e-05
1.59466e-05
1.31032e-05
9.56262e-06
5.18252e-06
-1.64432e-07
-6.59653e-06
-1.42183e-05
-2.31194e-05
-3.33733e-05
-4.50349e-05
-5.81364e-05
-7.26931e-05
-8.87007e-05
-0.000106144
-0.00012498
-0.000145163
-0.000166621
-0.000189283
-0.000213054
-0.000237816
-0.000263436
-0.000289763
-0.000316628
-0.000343842
-0.000371201
-0.000398465
-0.000425399
-0.000451744
-0.000477244
-0.000501634
-0.000524669
-0.000546088
-0.000565649
-0.00058313
-0.000598343
-0.000611103
-0.000621275
-0.000628747
-0.000633447
-0.000635325
-0.000634384
-0.000630622
-0.00062412
-0.000614974
-0.000603274
-0.000589167
-0.000572797
-0.000554343
-0.000534001
-0.000511926
-0.000488327
-0.000463401
-0.000437325
-0.000410301
-0.000382495
-0.000354089
-0.000325222
-0.000296043
-0.000266733
-0.000237392
-0.000208117
-0.000179018
-0.000150204
-0.000121683
-9.36225e-05
-6.60805e-05
-3.90469e-05
-1.26711e-05
1.30186e-05
3.81174e-05
6.27786e-05
8.71497e-05
0.000111299
0.000135337
0.000159369
0.000183308
0.000207009
0.000230352
0.00025325
0.00027567
0.000297613
0.000319189
0.000340399
0.000361294
0.000381884
0.000402259
0.000422409
0.000442339
0.000462087
0.000481788
0.000501435
4.54646e-05
4.19263e-05
4.18233e-05
3.93749e-05
3.85962e-05
3.69774e-05
3.56622e-05
3.39466e-05
3.21107e-05
2.99894e-05
2.76086e-05
2.49234e-05
2.1914e-05
1.85521e-05
1.48065e-05
1.06432e-05
6.02443e-06
9.11411e-07
-4.73826e-06
-1.09675e-05
-1.7814e-05
-2.53118e-05
-3.34855e-05
-4.23534e-05
-5.19128e-05
-6.21535e-05
-7.30452e-05
-8.45437e-05
-9.65913e-05
-0.000109114
-0.000122027
-0.000135234
-0.000148634
-0.00016212
-0.000175586
-0.000188921
-0.000202025
-0.000214797
-0.000227151
-0.000239011
-0.000250309
-0.000260986
-0.000271004
-0.000280332
-0.000288952
-0.000296866
-0.000304068
-0.000310575
-0.000316408
-0.000321594
-0.000326162
-0.000330151
-0.000333615
-0.000336586
-0.000339099
-0.00034121
-0.000342956
-0.000344374
-0.00034551
-0.000346397
-0.000347071
-0.000347559
-0.000347883
-0.000348072
-0.00034815
-0.000348124
-0.00034801
-0.000347823
-0.000347572
-0.00034726
-0.000346897
-0.000346498
-0.000346059
-0.000345583
-0.000345079
-0.000344547
-0.000343973
-0.000343356
-0.000342678
-0.000341887
-0.000340917
-0.000339709
-0.000338226
-0.000336481
-0.000334525
-0.000332437
-0.000330272
-0.000328044
-0.000325758
-0.000323408
-0.00032101
-0.000318556
-0.000316049
-0.000313508
-0.000310958
-0.000308423
-0.000305942
-0.000303551
-0.000301256
6.47361e-05
6.03829e-05
5.97108e-05
5.65628e-05
5.52556e-05
5.30485e-05
5.12177e-05
4.89226e-05
4.64362e-05
4.35444e-05
4.02355e-05
3.64334e-05
3.20947e-05
2.71766e-05
2.16443e-05
1.54775e-05
8.66149e-06
1.19244e-06
-6.92268e-06
-1.56634e-05
-2.50002e-05
-3.4892e-05
-4.52873e-05
-5.61235e-05
-6.73267e-05
-7.88159e-05
-9.05031e-05
-0.000102292
-0.000114086
-0.000125786
-0.000137292
-0.000148505
-0.000159337
-0.000169705
-0.000179535
-0.000188759
-0.000197325
-0.000205189
-0.000212322
-0.000218706
-0.000224333
-0.000229205
-0.000233339
-0.000236757
-0.000239494
-0.000241584
-0.000243071
-0.000244001
-0.000244425
-0.000244392
-0.000243957
-0.000243171
-0.000242087
-0.000240749
-0.000239205
-0.000237493
-0.000235651
-0.000233717
-0.000231719
-0.000229684
-0.000227635
-0.000225596
-0.000223583
-0.000221613
-0.000219698
-0.000217851
-0.000216077
-0.000214385
-0.000212774
-0.000211247
-0.000209804
-0.000208438
-0.000207153
-0.000205943
-0.000204798
-0.000203717
-0.000202683
-0.000201667
-0.000200632
-0.00019952
-0.000198273
-0.000196834
-0.000195156
-0.000193232
-0.000191123
-0.000188924
-0.000186694
-0.00018445
-0.000182185
-0.000179888
-0.000177554
-0.000175177
-0.000172748
-0.000170269
-0.000167759
-0.000165248
-0.00016276
-0.000160308
-0.000157893
8.35079e-05
7.84063e-05
7.73775e-05
7.38027e-05
7.21942e-05
6.9666e-05
6.76205e-05
6.51666e-05
6.2585e-05
5.9663e-05
5.6392e-05
5.27042e-05
4.85615e-05
4.39302e-05
3.87854e-05
3.31143e-05
2.69073e-05
2.01724e-05
1.29225e-05
5.18009e-06
-3.02072e-06
-1.1635e-05
-2.06107e-05
-2.98906e-05
-3.94143e-05
-4.91142e-05
-5.89235e-05
-6.87748e-05
-7.86024e-05
-8.83409e-05
-9.79316e-05
-0.000107318
-0.000116455
-0.000125307
-0.000133842
-0.000142032
-0.000149863
-0.000157326
-0.00016442
-0.000171152
-0.00017753
-0.000183567
-0.000189283
-0.000194698
-0.000199832
-0.000204704
-0.000209331
-0.000213733
-0.00021793
-0.000221938
-0.000225779
-0.000229464
-0.000233008
-0.000236422
-0.000239718
-0.000242902
-0.000245981
-0.000248963
-0.000251851
-0.000254654
-0.000257373
-0.000260014
-0.000262579
-0.000265072
-0.000267494
-0.000269847
-0.000272128
-0.000274339
-0.000276483
-0.00027856
-0.000280566
-0.000282501
-0.00028437
-0.00028617
-0.0002879
-0.00028956
-0.000291139
-0.000292623
-0.000293992
-0.000295204
-0.000296199
-0.000296912
-0.000297286
-0.000297286
-0.000296959
-0.000296423
-0.000295766
-0.000295019
-0.000294186
-0.00029326
-0.000292245
-0.000291146
-0.000289963
-0.000288706
-0.000287409
-0.00028611
-0.000284835
-0.000283602
-0.000282416
0.000101665
9.61969e-05
9.4996e-05
9.11518e-05
8.93768e-05
8.66611e-05
8.44893e-05
8.19507e-05
7.93176e-05
7.63794e-05
7.31184e-05
6.94662e-05
6.53847e-05
6.08428e-05
5.58176e-05
5.02995e-05
4.4283e-05
3.7775e-05
3.07945e-05
2.33649e-05
1.55177e-05
7.29754e-06
-1.25055e-06