/*--------------------------------*- C++ -*----------------------------------*\
  =========                 |
  \\      /  F ield         | OpenFOAM: The Open Source CFD Toolbox
   \\    /   O peration     | Website:  https://openfoam.org
    \\  /    A nd           | Version:  9
     \\/     M anipulation  |
\*---------------------------------------------------------------------------*/
FoamFile
{
    format      ascii;
    class       surfaceScalarField;
    location    "3000";
    object      phi;
}
// * * * * * * * * * * * * * * * * * * * * * * * * * * * * * * * * * * * * * //

dimensions      [0 3 -1 0 0 0 0];

internalField   nonuniform List<scalar> 
26464
(
0.00154064
0.00248587
0.000771848
0.00143133
-0.000138049
0.000340059
-0.000810677
-0.000831764
-0.00118672
-0.00160354
-0.00132566
-0.00208336
-0.00133484
-0.00220342
-0.00126384
-0.00202808
-0.00113007
-0.00159675
-0.000930552
-0.000980815
-0.000621987
-0.000245232
-0.000407052
0.000536887
0.00113292
-0.000574178
0.00208146
0.00293187
0.00148976
0.00202304
0.000785019
0.0010448
-7.42565e-05
2.75114e-05
-0.000719835
-0.000957964
-0.00115129
-0.00165191
-0.00141303
-0.00194168
-0.00155179
-0.00188932
-0.00160456
-0.00154397
-0.00157692
-0.00100846
-0.00146592
-0.000356235
-0.00129993
0.000370896
0.00101164
-0.00117865
0.00236672
0.00323461
0.00191327
0.00247648
0.00131181
0.00164626
0.000563877
0.000775443
-0.000205755
-0.000188332
-0.000788959
-0.0010687
-0.0011767
-0.00155394
-0.00143308
-0.00163294
-0.00162654
-0.00135052
-0.00176937
-0.000865627
-0.00179073
-0.000334866
-0.00167018
0.000250341
0.000810445
-0.00146899
0.00246799
0.00341944
0.00214791
0.00279656
0.00169315
0.00210103
0.00111339
0.0013552
0.000372914
0.000552141
-0.000382396
-0.000313391
-0.000888843
-0.00104749
-0.00120542
-0.00131636
-0.00140186
-0.00115408
-0.00155864
-0.000708846
-0.00165174
-0.000241758
-0.00161234
0.000210934
0.000659973
-0.00146186
0.00245023
0.00351221
0.00224348
0.00300331
0.00191392
0.00243058
0.00146409
0.00180504
0.000881914
0.00113432
0.000152717
0.000415806
-0.000518058
-0.000376719
-0.000913363
-0.000921058
-0.00112813
-0.000939309
-0.00126122
-0.000575759
-0.00135958
-0.000143393
-0.00138407
0.000235421
0.000605693
-0.00132979
0.00235469
0.00354665
0.00222697
0.00313104
0.00199907
0.00265848
0.00166365
0.00214046
0.0012156
0.00158236
0.000644931
0.000986478
-5.73294e-05
0.000325541
-0.000605416
-0.000372971
-0.000861404
-0.000683321
-0.000983399
-0.000453764
-0.00107891
-4.78796e-05
-0.00114326
0.000299768
0.000619557
-0.00115712
0.00221615
0.00354601
0.00214529
0.00320189
0.00199093
0.00281285
0.00174622
0.00238516
0.00140777
0.00192082
0.000970304
0.00142395
0.000410479
0.000885365
-0.000221492
0.000259
-0.000605638
-0.000299175
-0.000737997
-0.000321406
-0.000822711
3.68343e-05
-0.000915588
0.000392645
0.000679762
-0.000975793
0.00206104
0.00353102
0.00202367
0.00323926
0.00192372
0.00291279
0.0017505
0.00255838
0.00149835
0.00217297
0.00116398
0.00175831
0.000737586
0.00131176
0.000190509
0.000806077
-0.000317173
0.000208508
-0.000513654
-0.000124924
-0.000592411
0.000115591
-0.000705339
0.000505573
0.000770554
-0.000796132
0.00190941
0.00351024
0.00189323
0.00325544
0.00182635
0.00297968
0.00170518
0.00267955
0.00151875
0.0023594
0.00126442
0.00201264
0.000936779
0.0016394
0.000519172
0.00122368
7.62882e-07
0.000726917
-0.000324339
0.000200178
-0.000407593
0.000198844
-0.000516524
0.000614504
0.00087758
-0.000623549
0.00176997
0.00349022
0.00176218
0.00326322
0.00171915
0.00302271
0.0016312
0.0027675
0.0014944
0.0024962
0.00130131
0.00220573
0.00104783
0.00189287
0.000725071
0.00154644
0.000311812
0.00114018
-0.00012598
0.000637969
-0.000280669
0.000353533
-0.000354067
0.000687903
0.000986198
-0.000462685
0.0016448
0.00347478
0.00164092
0.0032671
0.0016105
0.00305314
0.0015478
0.00283021
0.00144508
0.00259892
0.00129799
0.00235282
0.00110138
0.00208949
0.00084904
0.00179878
0.000524697
0.00146452
0.000116834
0.00104583
-0.000155166
0.000625533
-0.000207507
0.000740244
0.00109134
-0.000312646
0.00153358
0.00346535
0.00153107
0.0032696
0.00150853
0.00307568
0.00146019
0.00287855
0.00138348
0.00267562
0.00127162
0.00246468
0.00111882
0.00224229
0.000919052
0.00199855
0.000664028
0.00171954
0.000332067
0.00137779
-1.44721e-06
0.000959047
-9.16641e-05
0.000830461
0.00117359
-0.000173921
0.00143894
0.0034615
0.00143274
0.00327581
0.00141418
0.00309424
0.00137802
0.00291471
0.00131826
0.00273539
0.00123046
0.00255248
0.00111211
0.00236063
0.000955442
0.00215522
0.000753824
0.00192116
0.000489708
0.00164191
0.00017184
0.00127691
3.51958e-06
0.000998781
0.00122827
-5.11593e-05
0.00135574
0.003463
0.00134803
0.00328351
0.00133053
0.00311174
0.00129966
0.00294557
0.00125241
0.00278264
0.00118489
0.00262
0.00109089
0.00245463
0.000968505
0.00227761
0.000807468
0.0020822
0.000599193
0.00185018
0.000327847
0.00154826
0.00010599
0.00122064
0.00128439
4.98689e-05
0.0012836
0.00347002
0.00127314
0.00329397
0.00125551
0.00312937
0.00122951
0.00297157
0.00119039
0.00282176
0.00113543
0.00267496
0.00106215
0.00252791
0.000964294
0.00237547
0.000837682
0.00220881
0.000671927
0.00201594
0.000450875
0.00176931
0.000219721
0.00145179
0.00137044
0.000133678
0.00122041
0.00348096
0.00120676
0.00330761
0.00118927
0.00314687
0.00116472
0.00299612
0.00113221
0.00285428
0.00108791
0.00271925
0.00102867
0.00258715
0.000950703
0.00245344
0.000848893
0.00231062
0.000717719
0.00214711
0.00054076
0.00194627
0.000328305
0.00166425
0.00148976
0.000208984
0.00116459
0.0034955
0.00114874
0.00332347
0.00112995
0.00316566
0.00110689
0.00301917
0.0010779
0.00288327
0.00104034
0.00275682
0.000991993
0.00263549
0.000929653
0.00251578
0.000848451
0.00239182
0.000743067
0.0022525
0.000602114
0.00208722
0.000419393
0.00184697
0.00162861
0.000280541
0.00111461
0.00351218
0.00109613
0.00334194
0.00107669
0.00318509
0.00105438
0.00304149
0.00102763
0.00291002
0.000995128
0.00278932
0.000954719
0.0026759
0.000903282
0.00256721
0.000837191
0.00245791
0.000752667
0.00233702
0.000640101
0.00219979
0.000488506
0.00199856
0.00177137
0.000345744
0.00106821
0.00353214
0.00104837
0.00336179
0.00102778
0.00320569
0.00100577
0.0030635
0.0009807
0.00293509
0.000951639
0.00281838
0.000916423
0.00271111
0.000872966
0.00261067
0.000819394
0.00251148
0.000749844
0.00240657
0.000659938
0.0022897
0.000535465
0.00212303
0.00190618
0.000400655
0.00102576
0.00355387
0.00100443
0.00338311
0.000983102
0.00322701
0.000960259
0.00308634
0.000936156
0.00295919
0.000909014
0.00284552
0.000877777
0.00274235
0.000841126
0.00264732
0.000795105
0.00255751
0.000737995
0.00246368
0.000664479
0.00236321
0.000563337
0.00222418
0.00202872
0.000440803
0.000986291
0.00357719
0.000963188
0.00340622
0.000940354
0.00324985
0.000917484
0.00310921
0.000893411
0.00298326
0.000867667
0.00287127
0.000839173
0.00277084
0.000805901
0.0026806
0.000767166
0.00259624
0.000719171
0.00251168
0.000657946
0.00242444
0.000575311
0.00230681
0.00213732
0.000466704
0.000948389
0.00360167
0.000924035
0.00343057
0.000899874
0.00327401
0.000875859
0.00313323
0.00085159
0.00300753
0.000826564
0.00289629
0.000799628
0.00279778
0.000770016
0.00271021
0.000735744
0.00263051
0.00069483
0.00255259
0.000644358
0.00247491
0.000575954
0.00237522
0.00223239
0.000480888
0.000912425
0.00362811
0.000886784
0.00345621
0.000861432
0.00329936
0.000835946
0.00315871
0.000810743
0.00303273
0.000785545
0.00292149
0.000759817
0.00282351
0.000732516
0.00273751
0.000702818
0.00266021
0.000668137
0.00258727
0.000625891
0.00251716
0.000569534
0.00243157
0.00231359
0.000488335
0.000879518
0.00365564
0.000852273
0.00348346
0.000824998
0.00332664
0.000798447
0.00318526
0.0007723
0.00305888
0.000746667
0.00294712
0.000721514
0.00284866
0.000696436
0.00276259
0.000670134
0.00268651
0.00064131
0.0026161
0.000607507
0.00255096
0.000562373
0.00247671
0.00238101
0.000494948
0.000849321
0.00368365
0.000820862
0.00351192
0.000792477
0.00335502
0.000764691
0.00321305
0.000737721
0.00308585
0.000712106
0.00297274
0.000687706
0.00287306
0.000664813
0.00278548
0.000642488
0.00270884
0.000619337
0.00263925
0.000593304
0.00257699
0.000559369
0.00251064
0.00243372
0.000506663
0.000821763
0.00371224
0.000793184
0.0035405
0.000764545
0.00338366
0.000736649
0.00324095
0.000710099
0.0031124
0.000685244
0.00299759
0.000662946
0.00289536
0.000642743
0.00280568
0.000624958
0.00272662
0.000608039
0.00265617
0.000590541
0.00259449
0.000567818
0.00253337
0.0024706
0.000530942
0.000798475
0.00374072
0.000770382
0.00356859
0.00074293
0.00341111
0.000716519
0.00326736
0.000692119
0.0031368
0.000670294
0.00301942
0.000651353
0.0029143
0.000636117
0.00282092
0.000624201
0.00273854
0.000614641
0.00266573
0.000606434
0.0026027
0.000595293
0.00254451
0.00249245
0.000573439
0.000779423
0.00376862
0.000752744
0.00359527
0.000728226
0.00343563
0.000706122
0.00328946
0.000686617
0.00315631
0.000670486
0.00303555
0.000658047
0.00292674
0.000650107
0.00282886
0.000646278
0.00274237
0.000645911
0.00266609
0.000647646
0.00260096
0.000647744
0.00254441
0.00249952
0.000640672
0.000765402
0.00379472
0.00074285
0.00361782
0.000723578
0.0034549
0.00070761
0.00330543
0.000695868
0.00316805
0.000688444
0.00304297
0.000686023
0.00292916
0.000688264
0.00282662
0.000695395
0.00273524
0.000706095
0.00265539
0.0007184
0.00258866
0.000729853
0.00253296
0.00249422
0.000735155
0.000758496
0.00381741
0.00074062
0.0036357
0.0007284
0.00346712
0.000722202
0.00331163
0.000721245
0.003169
0.000725993
0.00303823
0.000736435
0.00291872
0.00075196
0.00281109
0.000771741
0.00271546
0.000794558
0.00263258
0.000818232
0.00256498
0.000839081
0.00251211
0.00247954
0.000853766
0.000758802
0.00383601
0.000748601
0.0036459
0.000746391
0.00346933
0.000751412
0.0033066
0.000763934
0.00315648
0.000783339
0.00301882
0.000808564
0.00289349
0.000838948
0.00278071
0.000872524
0.00268188
0.000907301
0.0025978
0.000940433
0.00253185
0.000969108
0.00248343
0.00245932
0.000989322
0.000769159
0.0038474
0.000768165
0.00364689
0.000777548
0.00345995
0.000796485
0.00328767
0.00082403
0.00312894
0.000858882
0.00298397
0.000899841
0.00285253
0.000944518
0.00273603
0.000990394
0.002636
0.00103462
0.00255357
0.00107481
0.00249166
0.00110664
0.0024516
0.00243839
0.00112757
0.000790028
0.00384947
0.000800475
0.00363645
0.000823125
0.0034373
0.000857037
0.00325376
0.00089988
0.00308609
0.000949959
0.00293389
0.0010045
0.00279799
0.00106074
0.00267979
0.00111549
0.00258125
0.00116514
0.00250392
0.00120632
0.00245049
0.00123644
0.00242148
0.00242211
0.00125272
0.000821081
0.00384005
0.000845315
0.00361221
0.000882468
0.00340015
0.000930973
0.00320525
0.000987839
0.00302923
0.00105057
0.00287116
0.00111508
0.00273348
0.00117801
0.00261686
0.00123563
0.00252363
0.00128411
0.00245544
0.00132066
0.00241394
0.0013425
0.00239964
0.00241716
0.00134745
0.000862027
0.00381584
0.000901174
0.00357306
0.000952815
0.00334851
0.00101434
0.00314373
0.00108265
0.00296091
0.00115321
0.0028006
0.00122213
0.00266457
0.00128501
0.00255398
0.0013383
0.00247034
0.00137869
0.00241505
0.00140326
0.00238937
0.00140997
0.00239293
0.00242909
0.00139804
0.0008694
0.00404735
0.000909507
0.00377573
0.000963782
0.00351879
0.00102866
0.00328363
0.00110041
0.00307198
0.00117482
0.00288651
0.00124722
0.0027282
0.0013135
0.00259829
0.00136867
0.00249881
0.00140973
0.00242928
0.00143393
0.00239085
0.00143973
0.00238358
0.00142597
0.00240669
0.00246306
0.001392
0.000949219
0.00637164
0.000917082
0.00603607
0.000890076
0.00571734
0.000870638
0.00541025
0.000855905
0.00511545
0.000842899
0.00484658
0.000841838
0.00458328
0.00086164
0.00430118
0.000902558
0.00400643
0.000959439
0.00371885
0.00102724
0.00345099
0.00110256
0.00320831
0.00117941
0.00299513
0.00125406
0.00281186
0.00132121
0.00266104
0.00137607
0.00254343
0.00141604
0.00245884
0.00143722
0.00240809
0.00143892
0.00238915
0.00141978
0.00240272
0.0013798
0.00244667
0.00252345
0.00131941
0.000909982
0.00640716
0.000880514
0.00606554
0.000857008
0.00574085
0.000840905
0.00542635
0.000828732
0.00512762
0.000821903
0.00485341
0.000835087
0.0045701
0.000874518
0.00426175
0.00093378
0.00394717
0.00100554
0.00364709
0.00108444
0.0033721
0.00116422
0.00312853
0.00124051
0.00291884
0.00130736
0.002745
0.00136083
0.00260756
0.00139718
0.00250709
0.00141319
0.00244283
0.00140793
0.00241335
0.00138101
0.00241607
0.00133238
0.00245134
0.0012626
0.00251646
0.00261383
0.00117222
0.000858423
0.00644194
0.000830052
0.00609391
0.000809109
0.00576179
0.000796351
0.00543911
0.000786115
0.00513786
0.000789481
0.00485004
0.0008224
0.00453718
0.000882469
0.00420168
0.000958542
0.0038711
0.001042
0.00356363
0.00112549
0.0032886
0.00120367
0.00305034
0.00127044
0.00285207
0.00132155
0.0026939
0.00135298
0.00257613
0.00136209
0.00249798
0.00134805
0.00245687
0.00131051
0.00245089
0.00124968
0.0024769
0.00116763
0.00253339
0.00106519
0.0026189
0.00273435
0.000944669
0.000791266
0.00647667
0.000763594
0.00612158
0.000744911
0.00578047
0.000732216
0.00545181
0.00072681
0.00514326
0.00074665
0.0048302
0.000802514
0.00448132
0.000881737
0.00412246
0.000970632
0.00378221
0.00105926
0.003475
0.00114046
0.00320741
0.00120793
0.00298287
0.00125652
0.00280348
0.00128268
0.00266774
0.00128373
0.00257508
0.00125894
0.00252277
0.0012081
0.00250771
0.00113348
0.00252551
0.00103637
0.00257401
0.000919126
0.00265063
0.000784162
0.00275386
0.00288316
0.00063535
0.000706271
0.00651244
0.000678817
0.00614903
0.00066003
0.00579926
0.00064769
0.00546415
0.000651547
0.00513941
0.00069468
0.00478707
0.000774098
0.0044019
0.000869046
0.00402751
0.000963897
0.00368735
0.0010495
0.0033894
0.00111823
0.00313868
0.00116484
0.00293626
0.00118539
0.00278292
0.00117766
0.00267547
0.00114049
0.00261224
0.00107544
0.00258782
0.0009847
0.00259845
0.000870383
0.00263983
0.000735931
0.00270846
0.000586427
0.00280014
0.000426631
0.00291366
0.00304566
0.00026413
0.000602826
0.00655096
0.000573728
0.00617813
0.000552064
0.00582092
0.000540721
0.00547549
0.000562657
0.00511747
0.000634849
0.00471488
0.000734926
0.00430182
0.000837003
0.00392543
0.000928462
0.00359589
0.00100025
0.00331761
0.00104575
0.00309318
0.00106095
0.00292106
0.00104353
0.00280035
0.000993611
0.00272539
0.000913158
0.00269269
0.000804495
0.00269649
0.000672296
0.00273065
0.000522248
0.00278988
0.000360755
0.00286996
0.000195875
0.00296502
3.53117e-05
0.00307422
0.00319573
-0.000114752
0.000523192
0.0069864
0.000480645
0.00659351
0.000446222
0.00621255
0.000418246
0.0058489
0.000413733
0.00548
0.000464413
0.00506679
0.000565957
0.00461333
0.000678122
0.00418966
0.000777462
0.00382609
0.00085367
0.00351969
0.000898701
0.00327258
0.000909587
0.0030823
0.000882952
0.0029477
0.00082074
0.00286256
0.00072383
0.0028223
0.000598423
0.0028181
0.000450833
0.00284408
0.000289572
0.00289191
0.000124069
0.00295538
-3.77012e-05
0.00303173
-0.000190334
0.00311765
-0.000329359
0.00321324
0.0033176
-0.000451232
0.000389041
0.00704337
0.000340068
0.00664248
0.000296169
0.00625645
0.000261021
0.00588405
0.000270836
0.00547019
0.000357276
0.00498035
0.000482149
0.00448846
0.00059353
0.00407827
0.000676518
0.0037431
0.000724007
0.0034722
0.000732168
0.00326442
0.000698037
0.00311643
0.000623111
0.00302262
0.000513073
0.00297259
0.000374524
0.00296085
0.000217889
0.00297474
5.43927e-05
0.00300757
-0.000107036
0.00305334
-0.000260233
0.00310858
-0.000400553
0.00317205
-0.000525564
0.00324266
-0.00063334
0.00332102
0.00340731
-0.00072305
0.000243066
0.0071082
0.000183608
0.00670194
0.000126342
0.00631372
8.63734e-05
0.00592402
0.00011793
0.00543863
0.00023777
0.00486051
0.000371337
0.00435489
0.000466766
0.00398285
0.000519618
0.00369025
0.000526885
0.00346493
0.000487776
0.00330352
0.00040514
0.00319906
0.000286712
0.00314105
0.00014294
0.00311637
-1.31226e-05
0.00311691
-0.000171223
0.00313284
-0.000323139
0.00315949
-0.00046361
0.00319381
-0.000589363
0.00323433
-0.000698946
0.00328163
-0.000791979
0.00333569
-0.000868312
0.00339735
0.00346691
-0.000927913
9.05429e-05
0.00718287
1.91771e-05
0.00677331
-5.06611e-05
0.00638356
-9.02837e-05
0.00596364
-3.72913e-05
0.00538564
9.74913e-05
0.00472573
0.000216873
0.00423551
0.000279203
0.00392051
0.000290268
0.00367919
0.000251424
0.00350377
0.000167706
0.00338724
5.02487e-05
0.00331652
-8.84961e-05
0.0032798
-0.000236165
0.00326403
-0.000382532
0.00326328
-0.000520578
0.00327088
-0.00064573
0.00328464
-0.0007557
0.00330378
-0.000849849
0.00332848
-0.00092807
0.00335985
-0.000991034
0.00339866
-0.00103957
0.00344589
0.00350172
-0.00107437
-5.89027e-05
0.00726694
-0.000141761
0.00685617
-0.000221101
0.0064629
-0.000255547
0.00599808
-0.000190392
0.00532048
-6.72999e-05
0.00460263
1.27905e-05
0.00415542
2.91041e-05
0.0039042
-4.41705e-06
0.00371271
-8.13729e-05
0.00358073
-0.000189927
0.0034958
-0.000316906
0.0034435
-0.000449719
0.00341261
-0.000580028
0.00339434
-0.000700895
0.00338414
-0.000808689
0.00337868
-0.00090198
0.00337793
-0.000980354
0.00338215
-0.00104437
0.0033925
-0.00109488
0.00341036
-0.00113278
0.00343655
-0.00115887
0.00347198
0.0035173
-0.00117445
-0.00019803
0.00735924
-0.000290078
0.00694821
-0.000374518
0.00654733
-0.000405227
0.00602879
-0.000344714
0.00525997
-0.000258713
0.00451663
-0.000231934
0.00412864
-0.000261175
0.00393344
-0.000329982
0.00378151
-0.000426518
0.00367726
-0.000538217
0.00360749
-0.000653648
0.00355893
-0.000765059
0.00352402
-0.000866808
0.00349609
-0.00095609
0.00347342
-0.00103219
0.00345478
-0.0010948
0.00344054
-0.0011449
0.00343225
-0.0011833
0.00343091
-0.00121096
0.00343802
-0.00122886
0.00345444
-0.0012381
0.00348123
0.00351866
-0.00123946
-0.000320929
0.0074577
-0.000419642
0.00704693
-0.000505917
0.00663361
-0.000537993
0.00606087
-0.000501114
0.00522309
-0.000468256
0.00448377
-0.000493412
0.0041538
-0.000557757
0.00399779
-0.000645068
0.00386882
-0.000743389
0.00377559
-0.000843022
0.00370713
-0.000936664
0.00365257
-0.00101984
0.0036072
-0.00109124
0.00356749
-0.00115014
0.00353233
-0.00119713
0.00350177
-0.00123337
0.00347678
-0.0012599
0.00345878
-0.00127772
0.00344872
-0.00128754
0.00344783
-0.00129059
0.00345749
-0.00128716
0.0034778
0.00350998
-0.00127848
-0.000423321
0.00756087
-0.000525265
0.00714887
-0.000612873
0.00672122
-0.000654443
0.00610244
-0.000654408
0.00522305
-0.000677636
0.004507
-0.000742852
0.00421901
-0.000827757
0.00408269
-0.00091947
0.00396054
-0.00100913
0.00386525
-0.00108987
0.00378786
-0.00115897
0.00372167
-0.00121504
0.00366326
-0.00125872
0.00361117
-0.00129116
0.00356477
-0.00131412
0.00352473
-0.0013289
0.00349156
-0.00133659
0.00346647
-0.00133826
0.00345038
-0.0013349
0.00344447
-0.00132654
0.00344914
-0.00131436
0.00346562
0.00349398
-0.00129837
-0.00050158
0.00766554
-0.000604778
0.00725207
-0.000694005
0.00681044
-0.000751014
0.00615945
-0.000793927
0.00526596
-0.000864282
0.00457736
-0.000956895
0.00431162
-0.00105126
0.00417706
-0.0011397
0.00404898
-0.00121589
0.00394144
-0.00127743
0.0038494
-0.00132427
0.00376851
-0.00135717
0.00369617
-0.00137856
0.00363255
-0.00139028
0.00357649
-0.00139421
0.00352866
-0.00139227
0.00348961
-0.0013856
0.0034598
-0.00137514
0.00343993
-0.00136134
0.00343067
-0.00134488
0.00343268
-0.00132598
0.00344673
0.00347313
-0.00130512
-0.000554347
0.00776975
-0.000656412
0.00735413
-0.000747482
0.00690151
-0.00082338
0.00623534
-0.000905957
0.00534854
-0.00101292
0.00468432
-0.00112153
0.00442023
-0.00121803
0.00427355
-0.00130025
0.0041312
-0.00136447
0.00400565
-0.00141079
0.00389573
-0.00144027
0.00379798
-0.00145636
0.00371226
-0.00146119
0.00363738
-0.00145752
0.00357282
-0.00144748
0.00351862
-0.00143293
0.00347506
-0.00141533
0.0034422
-0.00139542
0.00342001
-0.00137407
0.00340932
-0.00135143
0.00341003
-0.00132763
0.00342292
0.00344856
-0.00130307
-0.000580038
0.00787188
-0.000679504
0.0074536
-0.000772455
0.00699446
-0.000865687
0.00632858
-0.000980888
0.00546374
-0.00111321
0.00481664
-0.00123131
0.00453834
-0.00132832
0.00437056
-0.00140464
0.00420752
-0.00146026
0.00406127
-0.00149619
0.00393165
-0.00151552
0.00381732
-0.00152074
0.00371748
-0.00151474
0.00363138
-0.00150089
0.00355897
-0.00148147
0.00349919
-0.00145832
0.00345191
-0.00143269
0.00341657
-0.00140593
0.00339325
-0.00137848
0.00338187
-0.00135095
0.00338249
-0.00132347
0.00339545
0.00342122
-0.00129613
-0.000579734
0.00796946
-0.000674961
0.00754882
-0.000768573
0.00708807
-0.000875486
0.00643549
-0.00101414
0.00560239
-0.00116321
0.00496571
-0.00128724
0.00466236
-0.00138411
0.00446742
-0.00145842
0.00428183
-0.00151016
0.004113
-0.00154169
0.00396318
-0.00155569
0.00383132
-0.00155568
0.00371747
-0.00154482
0.00362051
-0.00152579
0.00353994
-0.00150102
0.00347442
-0.00147238
0.00342327
-0.00144163
0.00338581
-0.00140987
0.00336148
-0.00137814
0.00335012
-0.00134669
0.00335105
-0.00131612
0.00336487
0.00339161
-0.00128653
-0.000554135
0.0080613
-0.000644594
0.00763928
-0.000737148
0.00718062
-0.000852068
0.00655041
-0.00100499
0.00575531
-0.00116398
0.00512469
-0.00129319
0.00479157
-0.00139222
0.00456645
-0.00146696
0.00435657
-0.00151903
0.00416506
-0.00155102
0.00399517
-0.00156577
0.00384607
-0.00156571
0.00371741
-0.00155479
0.00360958
-0.00153464
0.00351978
-0.00150823
0.00344801
-0.0014775
0.00339254
-0.00144421
0.00335251
-0.00140968
0.00332695
-0.00137473
0.00331517
-0.00134063
0.00331693
-0.0013075
0.00333174
0.0033598
-0.00127569
-0.000507251
0.00814682
-0.000590906
0.00772293
-0.000680157
0.00726986
-0.0007976
0.00666784
-0.000957091
0.00591479
-0.00112159
0.00528919
-0.00125465
0.00492462
-0.00135726
0.00466906
-0.00143542
0.00443472
-0.00149219
0.00422182
-0.00152849
0.00403146
-0.00154767
0.00386525
-0.00155254
0.00372227
-0.00154471
0.00360175
-0.00152782
0.00350288
-0.00150342
0.00342361
-0.00147359
0.0033627
-0.00144024
0.00331916
-0.00140481
0.00329151
-0.00136859
0.00327895
-0.00133265
0.00328098
-0.00129763
0.00329669
0.00332617
-0.00126402
-0.000440996
0.00822443
-0.000517492
0.00779942
-0.000601438
0.0073538
-0.000716309
0.00678271
-0.000874954
0.00607343
-0.00104132
0.00545555
-0.00117813
0.00506141
-0.00128524
0.00477617
-0.00136923
0.00451869
-0.00143226
0.00428484
-0.00147666
0.00407585
-0.0015035
0.00389208
-0.00151572
0.00373447
-0.00151558
0.0036016
-0.00150444
0.00349172
-0.00148502
0.00340419
-0.00145914
0.0033368
-0.00142825
0.00328826
-0.00139425
0.0032575
-0.00135851
0.0032432
-0.00132206
0.00324452
-0.00128608
0.00326069
0.00329118
-0.00125111
-0.000358669
0.00829402
-0.000428003
0.00786875
-0.000504177
0.00742996
-0.000612253
0.00689078
-0.000765525
0.00622668
-0.000929656
0.00561967
-0.00106946
0.0052012
-0.00118143
0.00488812
-0.00127189
0.00460914
-0.00134335
0.0043563
-0.00139641
0.00412889
-0.00143389
0.00392956
-0.00145605
0.00375662
-0.001465
0.00361054
-0.00146317
0.00348988
-0.00145143
0.00339244
-0.00143193
0.00331729
-0.00140632
0.00326264
-0.00137597
0.00322714
-0.00134253
0.00320976
-0.00130731
0.00320928
-0.00127145
0.00322483
0.00325566
-0.00123594
-0.000203403
0.00879982
-0.000264284
0.00835489
-0.000324857
0.00792931
-0.000393305
0.0074984
-0.000491197
0.00698865
-0.000633597
0.00636907
-0.000793587
0.00577964
-0.000934145
0.00534175
-0.00105057
0.00500453
-0.00114799
0.00470655
-0.00122748
0.00443576
-0.00129116
0.00419256
-0.00133911
0.00397749
-0.00137281
0.00379031
-0.00139351
0.00363122
-0.00140209
0.00349844
-0.00140035
0.00339069
-0.00138962
0.00330654
-0.00137137
0.00324438
-0.00134705
0.00320281
-0.00131809
0.00318078
-0.0012859
0.00317708
-0.00125182
0.00319072
0.00322087
-0.00121707
-0.000107996
0.0088537
-0.000160573
0.00840746
-0.000212815
0.00798154
-0.000271055
0.00755663
-0.000357005
0.00707459
-0.000486775
0.00649883
-0.000638117
0.00593097
-0.000777727
0.00548135
-0.000897531
0.00512432
-0.00100018
0.00480919
-0.00108804
0.0045236
-0.00116152
0.00426603
-0.0012209
0.00403686
-0.00126682
0.00383622
-0.0012995
0.0036639
-0.00132021
0.00351914
-0.00133006
0.00340054
-0.0013299
0.00330638
-0.00132108
0.00323556
-0.00130491
0.00318664
-0.00128259
0.00315846
-0.00125551
0.00314999
-0.00122504
0.00316023
0.0031883
-0.00119252
3.77994e-05
0.00936877
-7.10472e-06
0.00889859
-5.12225e-05
0.00845156
-9.43862e-05
0.00802469
-0.00014296
0.00760519
-0.000214683
0.0071463
-0.000328508
0.00661264
-0.000469218
0.00607167
-0.000605416
0.00561753
-0.000726157
0.00524505
-0.000833575
0.00491659
-0.000928258
0.00461828
-0.00101059
0.00434836
-0.00108012
0.00410639
-0.00113769
0.00389378
-0.00118294
0.00370914
-0.00121654
0.00355274
-0.0012388
0.0034228
-0.00125078
0.00331835
-0.00125313
0.00323791
-0.00124694
0.00318046
-0.00123335
0.00314486
-0.00121351
0.00313016
-0.00118876
0.0031354
0.00315973
-0.00116028
0.000132323
0.00940767
9.54515e-05
0.00893546
6.03618e-05
0.00848664
2.58353e-05
0.00805921
-1.26732e-05
0.0076437
-7.02684e-05
0.00720389
-0.000165629
0.006708
-0.000291609
0.00619764
-0.000420906
0.00574683
-0.000540582
0.00536473
-0.00064987
0.00502588
-0.000749462
0.00471788
-0.000839249
0.00443815
-0.00091871
0.00418586
-0.000987341
0.00396241
-0.00104469
0.0037665
-0.00109068
0.00359875
-0.00112594
0.00345807
-0.0011506
0.00334302
-0.00116538
0.0032527
-0.00117084
0.00318593
-0.0011678
0.00314184
-0.00115716
0.00311953
-0.00114017
0.00311847
0.0031375
-0.0011179
0.000226416
0.00943855
0.000197508
0.00896436
0.000170335
0.00851381
0.000144099
0.00808544
0.000115222
0.00767257
7.16159e-05
0.0072475
-4.57483e-06
0.00678419
-0.000111322
0.00630439
-0.000228848
0.00586435
-0.000343798
0.00547968
-0.00045255
0.00513464
-0.000554812
0.00482015
-0.000649972
0.00453331
-0.000737111
0.004273
-0.000815112
0.00404042
-0.000883631
0.00383503
-0.000941951
0.00365707
-0.000989911
0.00350604
-0.00102764
0.00338075
-0.00105538
0.00328045
-0.00107347
0.00320403
-0.0010825
0.00315085
-0.00108301
0.00312006
-0.00107588
0.00311125
0.00312365
-0.00106212
0.000316797
0.00946238
0.000295584
0.00898558
0.000275706
0.00853369
0.000256763
0.00810439
0.000237097
0.00769224
0.000205532
0.00727907
0.00014839
0.00684134
6.27813e-05
0.00639001
-3.85067e-05
0.00596565
-0.00014272
0.00558391
-0.0002467
0.00523863
-0.000348327
0.00492179
-0.000445807
0.00463081
-0.000538087
0.0043653
-0.000623722
0.00412607
-0.000701657
0.00391298
-0.000770942
0.00372637
-0.000831037
0.00356615
-0.000881619
0.00343135
-0.000922664
0.00332151
-0.000954051
0.00323542
-0.000976105
0.00317293
-0.000989149
0.00313311
-0.000993546
0.00311574
0.0031203
-0.000990121
0.000402244
0.00947982
0.000386971
0.00900086
0.00037402
0.00854665
0.000362387
0.00811603
0.000349541
0.0077051
0.000329203
0.00729942
0.000288851
0.0068817
0.000223656
0.00645522
0.000141699
0.00604762
5.2065e-05
0.00567355
-4.06656e-05
0.00533138
-0.000135672
0.00501681
-0.000230432
0.00472558
-0.00032412
0.004459
-0.000414498
0.00421647
-0.000499262
0.00399776
-0.00057782
0.00380495
-0.000648568
0.00363692
-0.000711032
0.00349383
-0.000764848
0.00337535
-0.000809582
0.00328018
-0.00084526
0.00320861
-0.0008718
0.00315969
-0.000889346
0.0031332
0.00312919
-0.000898313
0.000479905
0.0094916
0.000470521
0.00901025
0.000463356
0.00855383
0.000457422
0.00812197
0.000451819
0.00771071
0.0004403
0.00731094
0.000414287
0.00690773
0.000367538
0.00650197
0.000304641
0.00611053
0.000231982
0.00574622
0.000153019
0.00541035
7.05148e-05
0.00509931
-1.63507e-05
0.00481246
-0.000104894
0.00454755
-0.000193404
0.00430499
-0.000281054
0.00408542
-0.000365382
0.0038893
-0.000444425
0.00371597
-0.000517166
0.0035666
-0.00058271
0.00344091
-0.000640103
0.00333759
-0.000689127
0.00325768
-0.000729608
0.00320017
-0.00076094
0.00316467
0.00315182
-0.000783433
0.000548689
0.0094991
0.000544448
0.0090145
0.000541941
0.00855636
0.000541623
0.0081223
0.000541182
0.00771118
0.000537595
0.00731454
0.000522696
0.00692265
0.000492164
0.00653252
0.000446896
0.00615583
0.000391375
0.00580175
0.000328314
0.00547344
0.000259261
0.00516838
0.000185511
0.00488623
0.000107634
0.00462544
2.61566e-05
0.00438649
-5.69605e-05
0.00416855
-0.000140287
0.00397265
-0.000222408
0.00379811
-0.000301452
0.00364567
-0.000375723
0.00351521
-0.00044408
0.00340599
-0.000505542
0.00331917
-0.000559386
0.00325406
-0.000604882
0.00321018
0.0031887
-0.000641715
0.000608981
0.00950161
0.000608487
0.00901502
0.000610212
0.00855467
0.000613634
0.0081189
0.000617738
0.0077071
0.000619911
0.00731238
0.000614449
0.00692814
0.000596908
0.00655007
0.00056698
0.00618578
0.000526967
0.00584178
0.000479533
0.00552089
0.000425615
0.00522231
0.000365985
0.00494589
0.000300855
0.00469059
0.000231022
0.00445635
0.000157628
0.00424196
8.13687e-05
0.00404894
3.51124e-06
0.00387599
-7.4566e-05
0.00372378
-0.000151469
0.00359213
-0.000225993
0.00348054
-0.000296369
0.00338961
-0.000361319
0.00331902
-0.000419562
0.00326858
0.00323964
-0.00047028
0.000658565
0.00950115
0.000661888
0.00901171
0.000667199
0.00854939
0.000673992
0.00811212
0.000681731
0.0076994
0.000688707
0.00730542
0.000690403
0.00692648
0.000682731
0.00655776
0.000665278
0.00620326
0.000639114
0.00586795
0.000606058
0.00555398
0.000566233
0.00526215
0.000520437
0.00499171
0.000469268
0.00474177
0.000413185
0.00451246
0.000352024
0.00430314
0.00028686
0.00411413
0.000218293
0.00394457
0.000147346
0.00379476
7.48957e-05
0.0036646
1.90342e-06
0.00355355
-7.02485e-05
0.00346184
-0.000140343
0.00338912
-0.000207001
0.00333544
0.00330152
-0.000268596
0.000699947
0.00949749
0.000705783
0.00900589
0.000713728
0.00854147
0.000723296
0.00810256
0.00073454
0.00768817
0.000744361
0.00729561
0.000751755
0.0069191
0.000752249
0.00655727
0.000745232
0.0062103
0.000730537
0.00588266
0.000709163
0.00557537
0.000682191
0.00528913
0.000649741
0.00502418
0.00061206
0.00477946
0.000569085
0.00455546
0.000520907
0.00435132
0.000468866
0.00416619
0.000412304
0.00400114
0.000352155
0.00385493
0.00028903
0.00372774
0.000223438
0.00361918
0.000156224
0.00352908
8.83431e-05
0.00345704
2.07661e-05
0.00340303
0.0033674
-4.50317e-05
0.000733661
0.00949161
0.000741614
0.00899794
0.00075174
0.00853136
0.000763403
0.0080909
0.000776551
0.00767504
0.000790114
0.00728205
0.000801006
0.00690822
0.00080759
0.00655069
0.000807904
0.00620999
0.000802711
0.00588785
0.000791657
0.00558644
0.000775395