/*--------------------------------*- C++ -*----------------------------------*\
  =========                 |
  \\      /  F ield         | OpenFOAM: The Open Source CFD Toolbox
   \\    /   O peration     | Website:  https://openfoam.org
    \\  /    A nd           | Version:  9
     \\/     M anipulation  |
\*---------------------------------------------------------------------------*/
FoamFile
{
    format      ascii;
    class       volScalarField;
    location    "3000";
    object      ReThetat;
}
// * * * * * * * * * * * * * * * * * * * * * * * * * * * * * * * * * * * * * //

dimensions      [0 0 0 0 0 0 0];

internalField   nonuniform List<scalar> 
13354
(
552.54
550.864
546.915
548.946
582.141
617.343
626.554
609.37
594.112
595.636
594.824
595.428
616.547
573.028
555.822
544.78
544.669
564.076
601.811
625.015
620.254
605.71
603.264
605.883
607.353
619.38
614.509
586.422
564.948
552.688
564.784
597.956
624.405
624.955
612.299
610.292
615.492
618.271
628.434
657.577
627.478
600.904
581.613
574.495
594.466
621.883
629.112
619.276
616.456
624.145
629.108
639.008
688.388
662.685
637.665
616.4
601.963
599.365
619.896
631.332
624.701
620.439
629.872
637.525
647.949
702.8
683.856
664.291
645.536
629.731
619.479
620.299
632.822
629.117
622.51
631.724
642.101
653.926
702.703
690.137
677.005
663.156
649.715
638.347
631.558
633.828
633.096
623.64
629.786
642.553
656.711
692.207
684.415
676.895
668.429
659.234
650.084
642.431
638.799
636.973
625.018
624.18
638.971
656.367
675.62
670.637
667.115
663.275
658.718
653.382
647.788
643.475
641.719
627.32
616.049
631.644
652.929
656.49
652.501
651.159
650.566
650.028
648.867
646.705
644.176
642.881
635.547
612.035
621.223
646.319
637.254
632.904
632.123
633.209
635.519
638.041
639.666
640.132
640.301
639.87
617.542
610.842
637.866
619.343
613.821
612.407
613.758
617.536
622.738
627.738
631.519
634.081
637.036
627.808
605.232
627.972
603.372
596.367
593.587
594.101
598.016
604.71
612.348
619.031
624.402
629.873
631.884
608.246
617.05
589.572
581.052
576.547
575.454
578.363
585.328
594.818
603.572
611.582
619.387
628.452
616.199
608.863
577.922
568.102
561.723
558.551
559.629
565.671
576.359
586.047
595.929
605.974
619.434
620.671
607.669
568.291
557.628
549.489
543.814
542.535
546.811
558.223
567.667
577.952
589.703
606.165
618.821
609.833
560.471
549.316
539.73
531.785
527.8
529.479
542.134
550.41
559.009
571.058
589.569
610.816
610.524
554.204
542.755
532.023
522.297
515.591
514.491
527.244
536.166
541.378
551.635
570.792
598.032
607.841
549.236
537.564
525.988
514.917
505.862
502.753
516.41
527.961
528.227
534.13
551.77
582.323
601.619
545.315
533.454
521.356
509.134
498.589
495.312
510.365
525.864
521.816
521.401
535.042
565.924
592.609
542.245
530.305
517.837
505.062
494.529
492.599
509.106
528.701
523.818
515.939
523.23
551.28
582.184
539.904
528.015
515.425
503.373
494.55
494.987
512.55
535.22
532.425
520.196
518.981
540.567
571.963
538.244
526.608
514.383
504.228
498.87
502.407
519.12
542.727
543.426
530.993
523.5
536.295
564.319
537.281
526.127
514.678
506.716
504.692
509.147
521.883
544.068
548.774
539.621
530.145
537.438
559.795
537.05
526.593
516.025
509.225
508.342
511.719
519.985
535.079
541.498
537.043
529.931
538.941
557.216
537.586
527.961
518.242
511.814
510.328
512.479
518.697
530.08
537.288
536.386
531.564
536.102
554.166
538.889
530.163
521.266
515.041
513.035
514.384
519.095
527.896
535.168
536.841
534.373
536.463
548.179
540.924
533.119
524.992
519.011
516.584
517.217
520.723
527.576
534.437
537.821
537.537
538.783
545.858
543.663
536.755
529.317
523.575
520.806
520.778
523.263
528.525
534.636
538.911
540.475
541.913
546.372
547.09
540.999
534.142
528.62
525.567
524.925
526.489
530.386
535.49
540.009
542.838
545.127
548.56
551.186
545.747
539.326
533.979
530.703
529.509
530.253
532.933
536.968
541.189
544.832
548.026
551.9
555.908
550.868
544.694
539.452
535.979
534.342
534.381
536.075
539.06
542.852
546.793
551.125
555.873
561.159
556.218
550.033
544.795
541.182
539.187
538.704
539.63
541.933
545.227
549.646
554.824
561.776
566.691
561.467
555.053
549.645
545.937
543.785
543.012
543.63
545.507
548.981
553.799
561.035
569.57
571.944
566.271
559.407
553.842
549.928
547.78
546.883
547.62
550.176
554.139
561.089
569.933
582.238
585.266
577.349
570.028
562.984
557.325
553.624
551.379
551.351
552.713
556.012
562.419
571.303
584.501
595.716
650.964
636.763
624.955
618.243
616.768
613.673
608.509
600.276
592.443
581.78
573.28
565.929
560.57
557.327
556.248
557.371
561.68
566.603
574.116
587.777
600.207
610.946
705.728
686.663
660.71
644.784
637.384
630.515
621.65
609.107
596.409
585.128
575.997
568.768
563.844
562.191
562.855
567.133
573.745
584.935
593.91
605.745
617.709
628.601
749.883
726.489
694.464
672.705
656.631
642.832
628.936
613.06
598.92
587.561
578.497
571.737
568.631
568.788
573.381
580.278
592.747
603.709
613.724
625.59
637.697
648.225
788.733
759.606
723.942
699.394
674.53
651.821
632.033
614.301
600.352
588.681
580.453
575.363
575.145
580.191
587.922
601.124
612.825
624.438
635.273
647.102
659.174
669.255
832.258
790.971
751.352
724.715
689.796
657.629
632.393
613.908
599.856
590.433
583.508
584.728
588.437
596.015
610.962
623.542
635.112
646.799
657.933
670.444
681.534
688.497
884.062
834.449
791.093
748.498
701.177
660.595
631.163
611.526
600.224
594.17
593.749
599.754
614.15
623.431
635.522
647.246
658.589
670.71
681.327
692.124
700.694
704.092
1073.66
944.8
883.731
836.603
768.91
708.082
660.656
627.734
610.845
603.267
604.269
609.422
626.134
639.552
649.349
660.51
671.962
682.283
692.451
701.437
710.721
713.848
707.99
1115.8
1012.38
953.034
897.432
783.084
711.001
658.81
626.674
613.869
613.876
619.511
636.449
652.058
665.415
674.853
684.263
693.661
702.253
710.446
714.862
716.553
713.997
701.803
1136.02
1056.86
1001.25
940.796
792.043
710.124
656.11
629.718
626.119
630.247
647.416
662.3
677.083
688.769
697.533
705.979
710.828
714.439
715.221
714.632
712.283
703.436
679.246
1151.15
1087.51
1035.84
970.266
799.519
709.183
654.971
644.328
645.409
661.043
672.736
685.108
697.647
707.832
713.481
714.988
715
713.871
710.3
703.86
689.363
678.885
653.962
1163.49
1110.35
1062.06
989.875
805.373
711.252
669.287
667.98
681.75
689.113
694.284
702.652
709.425
713.217
714.147
711.545
708.752
699.888
687.341
679.082
663.155
649.643
608.481
1173.81
1128.84
1082.51
1004.05
818.412
726.394
697.604
713.813
716.708
714.396
708.281
707.724
709.047
707.311
702.222
688.623
684.982
674.272
661.295
649.667
615.382
605.855
585.055
1182.94
1144.42
1099.13
1016.21
838.938
753.359
750.51
756.562
750.334
736.362
714.34
700.627
692.255
683.956
676.115
661.439
655.546
627.346
613.418
606.584
590.167
584.591
573.836
1191.49
1158.13
1113.59
1029.01
878.754
801.77
797.377
795.847
782.558
757.663
716.923
682.998
668.539
655.688
630.921
613.039
608.792
595.114
588.6
585.354
577.799
574.597
568.666
1199.59
1170.56
1126.92
1042.26
912.003
843.848
838.135
831.72
814.17
781.795
724.067
667.115
632.339
616.217
599.929
589.051
585.806
579.15
576.282
575.011
571.804
569.946
566.343
1207.18
1182.05
1139.61
1056.55
942.309
881.266
873.51
864.709
845.7
810.532
741.392
651.65
618.66
603.022
589.279
580.139
576.276
571.971
570.252
569.889
568.648
567.588
565.146
1213.76
1192.45
1151.81
1071.99
971.011
915.218
905.164
895.441
877.151
843.869
772.968
663.874
627.279
607.451
591.708
580.898
574.384
569.469
567.534
566.978
566.561
565.988
564.234
1219.12
1201.51
1162.99
1087.69
998.228
947.007
934.574
924.341
908.077
879.635
816.784
704.955
652.618
625.399
604.245
588.751
578.2
571.458
567.446
565.819
565.239
564.888
563.41
1222.37
1208.58
1172.66
1103.2
1023.98
977.01
962.169
951.427
937.972
915.726
865.465
763.883
699.372
656.262
627.109
605.355
590.828
579.343
571.886
567.442
565.588
564.388
562.602
1223.31
1212.88
1179.97
1117.72
1048.07
1004.83
987.797
976.77
966.401
950.639
915.239
844.998
761.255
705.031
664.208
636.636
613.418
595.988
582.169
573.394
567.883
564.56
562.16
1220.28
1213.57
1184.63
1129.79
1070.27
1029.83
1011.71
1000.7
992.91
982.541
958.551
912.177
848.37
771.997
723.149
680.799
649.192
621.047
600.119
584.117
573.493
567.135
562.856
1212.39
1209.29
1184.52
1138.31
1087.9
1052.42
1034.67
1023.44
1017.74
1011.32
995.363
964.772
921.381
862.984
794.171
743.652
695.146
657.864
626.315
603.077
586.217
574.291
566.852
1160.04
1197.54
1198.71
1179.52
1140.58
1101.74
1072.97
1055.62
1044.8
1040.87
1037.38
1026.84
1006.03
976.106
936.686
885.553
814.612
758.461
705.815
665.923
633.877
608.304
589.717
575.48
1103.25
1172.56
1178.15
1165.04
1139.41
1111.23
1088.84
1073.56
1063.51
1061.94
1060.99
1054.16
1039.54
1017.72
989.706
954.855
904.372
831.131
772.084
720.319
678.566
645.104
613.921
591.626
1027.01
1071.33
1134.22
1145.09
1141.42
1129.1
1114.36
1100.14
1087.67
1079.45
1080.08
1082.21
1078.29
1067.57
1050.95
1029.42
1004.15
970.71
920.598
851.214
794.105
746.129
694.165
651.417
617.19
961.077
1026.65
1075.95
1091.57
1100.06
1110.31
1110.95
1105.69
1099.21
1092.47
1095.52
1100.27
1099.41
1091.69
1078.45
1060.74
1040.73
1017.3
985.314
941.113
892.25
823.642
762.808
703.126
656.992
904.057
954.821
995.812
1018.19
1043.19
1075.86
1096.49
1106.91
1106.5
1102.99
1107.93
1115.16
1117.41
1112.26
1101.62
1086.48
1069.29
1051.14
1029.12
1000.34
967.98
920.245
844.081
778.13
722.793
847.504
876.034
902.079
921.577
965.73
1025.61
1076.09
1098.58
1106.6
1108.72
1117.64
1126.48
1131.92
1129.69
1120.84
1107.6
1092.4
1077.24
1060.53
1040.1
1017.77
988.031
940.369
879.003
801.853
805.649
819.351
832.572
843.674
873.79
964.782
1034.95
1078.01
1099.37
1107.65
1121.97
1134.86
1142.13
1142.76
1136.23
1124.83
1111.03
1097.66
1084.11
1068.35
1051.49
1031.83
1002.4
960.511
901.796
778.104
782.787
787.168
791.333
807.746
873.071
982.973
1049.34
1081.91
1100.24
1120.37
1137.3
1147.82
1151.68
1147.07
1137.38
1125.34
1113.56
1101.92
1088.88
1075.16
1061.2
1042.19
1012.29
969.851
761.72
760.972
759.695
759.068
766.005
803.801
916.183
1003.02
1056.95
1083.81
1110.5
1134.12
1147.32
1153.92
1152.84
1145.22
1134.55
1124.22
1114.45
1103.57
1091.9
1081.19
1068.31
1045.77
1013.32
753.424
749.334
744.558
740.878
741.828
760.479
831.231
948.008
1012.38
1058.87
1091.77
1119.78
1139.9
1149.65
1150.86
1145.64
1137.72
1129.54
1121.36
1112.15
1102.2
1093.96
1085.19
1067.55
1041.68
750.789
744.534
737.648
732.137
729.38
736.201
774.797
861.235
958.028
1014.3
1062.95
1097.29
1120.94
1134.62
1140.88
1138.44
1132.63
1126.7
1121.15
1114.36
1106.24
1099.9
1093.93
1079.95
1059.28
752.045
744.313
736.169
729.621
724.521
724.295
742.725
793.416
875.679
958.687
1015.42
1057.52
1091.92
1109.56
1118.72
1119.98
1118.67
1115.86
1112.52
1107.75
1101.78
1098.09
1094.96
1084.25
1067.68
755.955
747.188
738.296
731.188
724.521
720.106
726.704
753.233
802.932
873.034
952.345
1003.59
1041.96
1069.98
1086.33
1091.19
1093.04
1093.35
1094.03
1092.46
1088.86
1087.45
1086.4
1078.73
1066.5
761.673
752.17
742.875
735.449
727.644
720.689
720.488
732.606
759.219
801.875
860.26
928.295
978.824
1013.3
1033.84
1047.14
1056.2
1060.96
1064.53
1065.42
1064.77
1067.04
1068.64
1063.81
1055.19
768.619
758.635
749.2
741.523
732.809
724.282
720.181
723.971
736.721
760.168
794.692
838.948
885.741
936.151
967.787
987.785
1001.37
1011.56
1022.01
1027.9
1030.89
1035.75
1039.13
1036.94
1032.86
776.392
766.133
756.781
748.819
739.318
729.816
723.463
722.361
727.108
739.058
757.905
782.924
811.928
845.427
876.473
909.75
932.786
949.704
964.003
973.496
981.188
991.613
998.594
999.793
999.429
784.779
774.377
765.261
756.918
746.729
736.616
728.949
724.828
724.839
730.131
739.681
752.75
768.528
786.832
805.241
825.934
845.686
867.443
890.677
906.651
919.463
932.695
941.731
946.498
951.649
793.688
783.219
774.401
765.555
754.763
744.279
735.808
729.7
726.755
728.119
732.196
738.244
745.759
754.203
762.743
772.588
783.179
795.65
810.035
823.644
839.085
858.97
872.413
881.544
890.471
803.033
792.585
784.013
774.544
763.241
752.529
743.527
736.017
731.148
730.105
730.858
732.74
735.265
737.736
739.913
742.743
746.444
751.434
757.616
764.093
772.098
782.733
791.992
800.809
812.419
812.688
802.388
793.895
783.714
772.027
761.176
751.742
743.198
737.079
734.489
733.127
732.437
731.889
730.733
728.997
727.579
726.881
727.034
727.848
729.054
731.294
734.782
737.828
740.968
746.071
822.593
812.535
803.874
792.944
781.013
770.092
760.234
750.951
744.044
740.404
737.635
735.277
732.744
729.299
725.143
721.158
717.74
714.905
712.437
710.291
708.832
707.854
706.547
705.421
705.686
832.676
822.915
813.83
802.167
790.114
779.16
768.873
759.113
751.74
747.353
743.611
740.116
736.219
731.236
725.527
719.944
714.81
710.087
705.567
701.305
697.507
693.767
689.681
685.866
683.138
842.843
833.335
823.64
811.373
799.242
788.269
777.572
767.527
759.915
754.996
750.569
746.261
741.369
735.282
728.53
721.881
715.598
709.586
703.697
698.017
692.616
687.029
681.115
675.647
671.093
853.046
843.667
833.2
820.527
808.339
797.34
786.269
776.084
768.379
763.089
758.182
753.268
747.602
740.681
733.162
725.745
718.603
711.63
704.721
697.975
691.325
684.339
677.122
670.6
664.919
863.205
853.792
842.471
829.588
817.329
806.264
794.87
784.675
776.986
771.44
766.192
760.813
754.514
746.932
738.802
730.753
722.897
715.114
707.347
699.69
691.949
683.774
675.534
668.274
661.861
873.266
863.593
851.441
838.508
826.184
814.967
803.306
793.188
785.599
779.902
774.409
768.636
761.772
753.637
744.979
736.362
727.837
719.304
710.75
702.215
693.422
684.156
675.067
667.237
660.288
883.166
872.984
860.118
847.205
834.842
823.392
811.535
801.546
794.112
788.336
782.662
776.522
769.109
760.48
751.327
742.145
732.946
723.678
714.334
704.885
695.015
684.733
674.952
666.672
659.23
892.814
881.938
868.563
855.657
843.237
831.48
819.519
809.691
802.451
796.637
790.798
784.285
776.332
767.212
757.558
747.774
737.871
727.836
717.649
707.194
696.208
685
674.689
666.046
658.126
902.109
890.403
876.77
863.828
851.329
839.223
827.232
817.558
810.548
804.73
798.701
791.765
783.27
773.636
763.43
752.993
742.323
731.468
720.365
708.784
696.648
684.607
673.898
664.937
656.529
910.893
898.288
884.587
871.55
858.95
846.521
834.574
825.041
818.285
812.451
806.192
798.761
789.694
779.498
768.692
757.512
746.014
734.267
722.137
709.324
696.027
683.248
672.219
662.946
654.079
919.118
905.655
891.961
878.732
866.024
853.319
841.475
832.127
825.583
819.683
813.118
805.095
795.432
784.63
773.125
761.12
748.708
735.948
722.655
708.541
694.115
680.68
669.366
659.82
650.679
926.787
912.602
898.946
885.421
872.55
859.601
847.921
838.834
832.428
826.369
819.395
810.692
800.363
788.887
776.599
763.667
750.227
736.323
721.695
706.241
690.77
676.782
665.249
655.586
646.676
934.039
919.335
905.677
891.761
878.608
865.426
853.971
845.217
838.829
832.484
824.983
815.522
804.421
792.155
778.97
764.975
750.38
735.195
719.077
702.281
685.916
671.561
660.006
650.666
642.909
940.563
925.594
911.837
897.448
883.922
870.527
859.416
851
844.54
837.803
829.644
819.362
807.447
794.288
780.068
764.917
749.071
732.44
714.742
696.595
679.552
665.167
654.078
645.95
640.801
947.737
932.622
918.574
903.598
889.54
875.86
865.086
856.882
850.182
842.856
833.776
822.537
809.62
795.32
779.805
763.265
745.947
727.596
708.242
688.898
671.56
657.805
648.225
642.954
642.753
950.341
935.352
921.035
905.69
891.344
877.666
867.411
859.527
852.696
844.903
835.029
823.023
809.319
794.097
777.503
759.786
741.049
721.031
700.157
680.123
663.308
651.493
645.318
645.421
653.185
966.696
951.176
935.668
919.276
904.009
889.887
879.457
871.138
863.329
854.042
842.22
828.177
812.357
794.874
775.769
755.401
733.769
711.045
688.353
668.239
653.452
645.698
645.833
654.874
674.334
934.328
919.84
904.828
889.318
874.915
862.039
852.387
844.634
837.36
829.091
818.638
806.181
792.055
776.306
758.98
740.177
719.878
698.623
678.583
663.025
654.717
655.336
665.909
687.238
719.566
1059.86
1042.23
1022.34
1003.42
986.623
973.483
964.347
956.957
948.313
932.219
911.198
887.247
860.938
832.263
801.319
768.272
734.16
701.46
674.074
655.65
648.478
654.087
673.406
706.295
750.525
912.394
897.923
880.284
862.705
846.851
833.761
823.423
814.196
803.345
787.405
767.707
746.259
724.043
701.276
678.472
656.587
637.991
625.694
622.976
632.867
657.333
695.635
743.042
789.191
812.261
878.54
869.381
859.917
852.858
847.599
844.019
841.819
840.631
840.079
839.975
840.386
841.257
842.368
843.543
844.85
846.347
848.751
853.368
858.095
863.083
868.498
873.324
876.96
879.154
879.21
945.732
1120.3
1330.71
1242.26
1243.54
1241.69
1240.25
1238.98
1237.78
1236.63
1235.49
1234.34
1233.15
1231.91
1230.6
1229.2
1227.67
1226.01
1224.16
1222.1
1219.77
1217.14
1214.2
1210.89
1207.18
1203.06
1198.51
1193.54
1188.17
1182.39
1176.26
1169.83
1163.15
1156.3
1149.39
1142.52
1135.78
1129.3
1123.18
1117.52
1112.45
1108.06
1104.48
1101.8
1100.1
1099.47
1099.96
1101.61
1104.41
1108.34
1113.37
1119.43
1126.43
1134.25
1142.72
1151.77
1161.32
1171.47
1182.36
1194.21
1207.42
1222.51
1240.08
1260.38
1282.17
1304.95
1324.24
1332.52
1328.41
1320.55
1306.42
1285.13
1254.3
1210.83
1151.86
1081.94
1027.85
992.08
970.177
956.999
949.31
945.036
942.835
942.142
941.35
939.206
935.38
930.154
924.137
917.754
911.116
904.513
898.241
892.533
887.622
883.644
880.746
879.219
879.279
919.252
1074.73
1294.03
1239.38
1239.39
1238.47
1237.64
1236.99
1236.47
1236.04
1235.7
1235.43
1235.24
1235.11
1235.04
1235.05
1235.13
1235.28
1235.51
1235.82
1236.22
1236.7
1237.29
1237.97
1238.72
1239.41
1240.22
1241.13
1242.18
1243.36
1244.68
1246.16
1247.79
1249.58
1251.53
1253.64
1255.87
1258.22
1260.64
1263.13
1265.67
1268.27
1270.97
1273.77
1276.63
1279.56
1282.66
1286.11
1290.06
1294.59
1299.8
1305.85
1312.84
1320.87
1329.69
1338.99
1348.29
1357.53
1367.03
1377.15
1388.45
1401.59
1417.45
1437.77
1466.56
1512.68
1587.73
1659.03
1659.66
1658.89
1657.35
1656.72
1656.45
1652.15
1617.69
1436.37
1253.01
1126.9
1035.14
968.424
918.525
883.288
858.895
847.551
847.482
851.964
856.171
857.551
856.044
852.811
847.22
839.988
832.779
826.996
823.715
823.439
824.845
825.787
823.154
900.916
1074.24
1273.03
1235.23
1235.16
1234.52
1233.8
1233.17
1232.61
1232.08
1231.55
1231.02
1230.47
1229.86
1229.2
1228.5
1227.74
1226.93
1226.07
1225.17
1224.23
1223.26
1222.27
1221.27
1220.26
1219.27
1218.31
1217.38
1216.47
1215.62
1214.82
1214.05
1213.33
1212.64
1211.98
1211.34
1210.72
1210.1
1209.48
1208.82
1208.12
1207.36
1206.59
1205.89
1205.29
1204.69
1204.08
1203.52
1203.26
1203.21
1203.53
1204.55
1206.43
1209.34
1213.31
1218.38
1224.14
1230.11
1236.19
1242.5
1249.1
1256.07
1263.23
1270.12
1276.13
1280.54
1282.47
1283.08
1283.82
1278.84
1273.63
1274.37
1279.58
1277.83
1260.5
1240.49
1207.78
1151.47
1073.48
1004.14
946.713
902.945
873.195
856.203
852.657
855.192
858.398
859.486
857.838
854.475
849.352
842.859
836.632
832.166
830.489
831.264
831.109
823.909
799.413
894.696
1085.89
1251.68
1230.95
1230.53
1230.38
1230.01
1229.69
1229.41
1229.17
1228.98
1228.81
1228.67
1228.56
1228.47
1228.4
1228.36
1228.34
1228.36
1228.41
1228.48
1228.6
1228.74
1228.91
1229.11
1229.33
1229.59
1229.8
1229.99
1230.18
1230.35
1230.51
1230.61
1230.64
1230.6
1230.49
1230.28
1229.96
1229.52
1228.95
1228.23
1227.34
1226.29
1225.15
1224.07
1223.03
1221.97
1220.86
1219.87
1219.25
1219.19
1219.81
1221.24
1223.63
1227.19
1231.99
1237.79
1244.03
1250.47
1257.23
1264.44
1272.27
1280.83
1290
1299.58
1309.54
1319.84
1329.49
1335.67
1335.55
1331.57
1331.2
1336.91
1339.24
1325.47
1296.81
1257.34
1198.29
1114.85
1033.29
963.592
907.984
867.001
842.739
836.276
838.107
841.548
843.008
841.391
837.887
832.81
826.384
820.61
817.262
817.227
818.332
814.759
798.945
761.679
889.299
1065.28
1243.7
1226.45
1225.67
1225.8
1225.64
1225.44
1225.28
1225.14
1225
1224.84
1224.67
1224.5
1224.32
1224.13
1223.94
1223.74
1223.56
1223.37
1223.2
1223.03
1222.88
1222.73
1222.58
1222.44
1222.3
1222.17
1222.04
1221.89
1221.74
1221.56
1221.35
1221.1
1220.8
1220.44
1219.93
1219.33
1218.65
1217.88
1217.01
1216.06
1215
1213.86
1212.76
1211.78
1210.87
1210.03
1209.25
1208.8
1208.89
1209.63
1211.21
1213.74
1217.39
1222.32
1228.44
1235.3
1242.47
1249.95
1257.88
1266.36
1275.52
1285.3
1295.41
1305.69
1316.07
1326.06
1333.85
1336.27
1334.03
1333.72
1339.32
1344.18
1336.08
1315.2
1286.25
1240.47
1162.52
1072.54
991.897
924.555
871.314
837.233
825.858
825.94
829.153
830.968
829.697
826.607
822.289
816.611
811.696
809.024
807.692
801.143
777.816
741.061
706.11
886.946
1064.47
1241.82
1221.98
1220.81
1221.16
1221.2
1221.13
1221.09
1221.07
1221.05
1221.03
1221.01
1220.99
1220.96
1220.93
1220.9
1220.87
1220.85
1220.84
1220.83
1220.82
1220.82
1220.81
1220.79
1220.76
1220.72
1220.67
1220.6
1220.51
1220.38
1220.22
1220.02
1219.76
1219.45
1219.08
1218.65
1218.15
1217.56
1216.9
1216.17
1215.36
1214.46
1213.49
1212.5
1211.67
1210.97
1210.41
1209.91
1209.64
1209.85
1210.69
1212.32
1214.87
1218.47
1223.29
1229.38
1236.43
1243.94
1251.76
1259.99
1268.74
1278.16
1288.28
1298.88
1309.74
1320.83
1331.83
1341.46
1346.77
1346.74
1346.58
1351.74
1358.51
1355.41
1339.66
1316.07
1276.77
1204.34
1110.01
1020.92
943.394
879.195
833.51
814.905
812.606
815.621
818.19
817.986
815.818
812.078
806.495
801.034
795.858
786.093
759.521
725.997
694.636
671.197
941.56
1079.64
1239.71
1217.59
1216.02
1216.54
1216.73
1216.76
1216.79
1216.84
1216.87
1216.9
1216.92
1216.94
1216.94
1216.93
1216.92
1216.91
1216.9
1216.89
1216.89
1216.89
1216.88
1216.88
1216.86
1216.83
1216.8
1216.75
1216.7
1216.62
1216.53
1216.4
1216.24
1216.05
1215.81
1215.54
1215.22
1214.86
1214.46
1214.01
1213.52
1212.99
1212.41
1211.78
1211.13
1210.57
1210.21
1210
1209.96
1210.08
1210.6
1211.68
1213.51
1216.25
1219.99
1224.87
1231.01
1238.29
1246.24
1254.54
1263.24
1272.45
1282.27
1292.82
1303.97
1315.47
1327.2
1338.95
1349.87
1357.51
1359.75
1360.09
1364.43
1371.78
1372.38
1361.19
1342.41
1307.75
1240.91
1146.46
1051.3
965.874
892.388
834.228
805.581
799.98
802.767
806.528
807.836
806.543
802.615
795.175
785.263
770.921
741.077
710.307
682.781
662.052
649.782
1255.43
1225.9
1238.03
1213.31
1211.33
1211.99
1212.32
1212.44
1212.54
1212.63
1212.72
1212.8
1212.86
1212.91
1212.95
1212.99
1213.02
1213.05
1213.08
1213.12
1213.17
1213.22
1213.28
1213.33
1213.38
1213.42
1213.47
1213.5
1213.54
1213.56
1213.57
1213.56
1213.54
1213.51
1213.44
1213.35
1213.24
1213.11
1212.95
1212.75
1212.53
1212.29
1212.02
1211.73
1211.42
1211.15
1211.09
1211.23
1211.56
1212.06
1212.87
1214.2
1216.22
1219.1
1222.96
1227.86
1233.97
1241.34
1249.6
1258.33
1267.48
1277.12
1287.32
1298.23
1309.83
1321.87
1334.16
1346.51
1358.37
1367.84
1372.34
1373.48
1376.97
1384.05
1387.17
1379.92
1364.5
1332.24
1269.84
1178.52
1080.45
989.899
909.454
840.29
798.998
788.857
791.158
796.167
798.717
797.11
790.27
775.864
752.71
722.971
694.439
670.888
653.489
643.281
640.022
1122.26
1469.62
1236.55
1209.13
1206.79
1207.56
1208.02
1208.21
1208.35
1208.49
1208.62
1208.73
1208.82
1208.91
1208.98
1209.04
1209.11
1209.18
1209.26
1209.34
1209.43
1209.54
1209.65
1209.78
1209.92
1210.06
1210.21
1210.36
1210.51
1210.67
1210.82
1210.96
1211.11
1211.24
1211.37
1211.49
1211.6
1211.7
1211.79
1211.87
1211.95
1212.02
1212.1
1212.17
1212.23
1212.32
1212.56
1213.04
1213.76
1214.69
1215.88
1217.53
1219.8
1222.89
1226.91
1231.9
1238.03
1245.45
1253.97
1263.17
1272.8
1282.91
1293.54
1304.8
1316.77
1329.24
1341.96
1354.72
1367.13
1377.82
1384.19
1386.32
1389
1395.09
1399.46
1395.29
1382.15
1351.02
1291.99
1206.02
1108.1
1014.74
929.417
851.842
797.132
780.743
781.409
786.645
788.696
783.461
767.856
736.806
705.981
678.566
657.875
643.815
636.084
634.305
637.337
1119.32
1427.09
1234.62
1205.02
1202.4
1203.28
1203.84
1204.1
1204.29
1204.47
1204.63
1204.76
1204.89
1205.01
1205.12
1205.23
1205.35
1205.47
1205.61
1205.76
1205.93
1206.12
1206.32
1206.54
1206.77
1207.03
1207.3
1207.58
1207.87
1208.18
1208.49
1208.81
1209.14
1209.47
1209.8
1210.15
1210.49
1210.85
1211.21
1211.58
1211.97
1212.36
1212.77
1213.21
1213.67
1214.16
1214.75
1215.57
1216.67
1218.02
1219.64
1221.64
1224.21
1227.53
1231.74
1236.86
1243.06
1250.5
1259.21
1268.79
1278.89
1289.46
1300.48
1312.04
1324.23
1336.96
1349.92
1362.86
1375.46
1386.76
1394.49
1397.61
1399.64
1404.35
1408.97
1406.94
1395.2
1364.53
1309.03
1229.36
1134.05
1039.7
951.607
868.507
802.171
776.969
773.455
776.013
773.159
758.258
724.724
692.078
664.515
644.689
632.774
627.374
627.355
631.47
638.408
1114.36
1264.19
1231.61
1201.04
1198.23
1199.2
1199.86
1200.17
1200.41
1200.62
1200.82
1201
1201.16
1201.31
1201.46
1201.62
1201.78
1201.96
1202.16
1202.38
1202.62
1202.89
1203.18
1203.5
1203.84
1204.21
1204.61
1205.03
1205.47
1205.93
1206.42
1206.92
1207.44
1207.99
1208.55
1209.13
1209.73
1210.36
1211.01
1211.68
1212.38
1213.12
1213.89
1214.7
1215.57
1216.48
1217.47
1218.65
1220.14
1221.91
1223.97
1226.37
1229.27
1232.85
1237.26
1242.57
1248.87
1256.36
1265.15
1275
1285.49
1296.45
1307.82
1319.58
1331.85
1344.61
1357.58
1370.46
1382.92
1394.32
1402.83
1406.79
1408.36
1411.58
1415.68
1414.89
1404.05
1374.03
1322.28
1249.06
1158.05
1063.95
974.624
888.895
813.842
776.874
765.41
759.782
743.271
713.46
682.22
654.513
633.456
621.482
617.166
618.649
624.147
632.066
641.206
1110.3
1330.44
1228.28
1196.98
1194.25
1195.31
1196.05
1196.42
1196.7
1196.95
1197.18
1197.39
1197.58
1197.77
1197.95
1198.15
1198.36
1198.59
1198.85
1199.14
1199.46
1199.81
1200.19
1200.61
1201.07
1201.57
1202.1
1202.66
1203.26
1203.9
1204.56
1205.26
1206
1206.76
1207.56
1208.39
1209.26
1210.16
1211.1
1212.09
1213.13
1214.21
1215.35
1216.56
1217.83
1219.17
1220.6
1222.17
1224.03
1226.21
1228.7
1231.52
1234.78
1238.65
1243.28
1248.8
1255.23
1262.75
1271.53
1281.5
1292.26
1303.49
1315.08
1326.96
1339.16
1351.73
1364.46
1377.03
1389.1
1400.18
1408.94
1413.51
1414.81
1416.62
1419.75
1419.47
1409.33
1380.45
1332.5
1265.43
1179.72
1086.91
997.009
909.632
827.588
776.74
752.919
730.823
703.833
674.178
648.337
626.852
612.609
607.001
608.574
615.151
624.308
634.401
644.425
1106.93
1427.41
1224.19
1193.15
1190.45
1191.59
1192.4
1192.82
1193.14
1193.42
1193.68
1193.92
1194.13
1194.35
1194.57
1194.8
1195.06
1195.34
1195.66
1196.01
1196.4
1196.84
1197.32
1197.84
1198.42
1199.04
1199.7
1200.42
1201.18
1201.99
1202.85
1203.75
1204.7
1205.69
1206.73
1207.82
1208.96
1210.15
1211.4
1212.71
1214.08
1215.52
1217.03
1218.63
1220.32
1222.09
1223.97
1225.97
1228.2
1230.77
1233.67
1236.91
1240.54
1244.69
1249.53
1255.23
1261.82
1269.37
1278.07
1287.99
1298.81
1310.17
1321.84
1333.71
1345.72
1357.9
1370.17
1382.22
1393.68
1404.18
1412.75
1417.66
1418.86
1419.49
1421.45
1421.18
1411.59
1384.57
1340.33
1278.75
1198.73
1108.2
1017.46
926.974
837.573
770.941
729.118
697.17
668.155
643.782
623.744
608.454
599.829
598.995
604.949
614.948
626.262
637.209
647.238
1104.15
1248.75
1219.24
1189.5
1186.8
1188.03
1188.89
1189.36
1189.71
1190.02
1190.3
1190.55
1190.8
1191.04
1191.28
1191.55
1191.85
1192.17
1192.54
1192.96
1193.42
1193.94
1194.51
1195.14
1195.82
1196.57
1197.37
1198.24
1199.17
1200.16
1201.2
1202.31
1203.47
1204.7
1205.98
1207.33
1208.75
1210.23
1211.79
1213.42
1215.14
1216.94
1218.83
1220.82
1222.92
1225.12
1227.44
1229.89
1232.52
1235.45
1238.73
1242.36
1246.35
1250.79
1255.84
1261.68
1268.4
1275.97
1284.53
1294.24
1304.93
1316.23
1327.83
1339.54
1351.24
1362.9
1374.53
1385.89
1396.61
1406.35
1414.44
1419.44
1420.65
1420.38
1421.13
1420.53
1411.26
1386.69
1346.05
1289.23
1214.95
1127.54
1035.12
938.036
838.16
753.384
702.258
666.329
641.248
622.01
607.673
597.669
593.122
595.671
604.558
616.596
628.828
639.78
649.384
1101.63
1233.77
1214.71
1185.78
1183.29
1184.6
1185.51
1186.01
1186.39
1186.72
1187.02
1187.29
1187.55
1187.8
1188.07
1188.37
1188.7
1189.06
1189.48
1189.95
1190.48
1191.07
1191.73
1192.45
1193.25
1194.12
1195.06
1196.08
1197.17
1198.33
1199.56
1200.87
1202.25
1203.7
1205.24
1206.85
1208.55
1210.32
1212.19
1214.16
1216.22
1218.39
1220.66
1223.04
1225.55
1228.18
1230.94
1233.83
1236.88
1240.18
1243.81
1247.8
1252.12
1256.83
1262.07
1268.04
1274.82
1282.38
1290.78
1300.16
1310.53
1321.57
1332.91
1344.33
1355.62
1366.69
1377.54
1388.08
1397.95
1406.83
1414.28
1419.13
1420.38
1419.48
1419.1
1417.93
1409.09
1387.08
1349.69
1296.8
1228.16
1144.61
1049.75
941.823
826.066
732.816
677.545
643.755
622.199
608.038
598.796
592.617
590.919
595.672
606.187
619.201
631.541
642.052
651.065
1099.39
1284.02
1210.08
1182.13
1179.91
1181.3
1182.25
1182.77
1183.17
1183.51
1183.82
1184.1
1184.37
1184.64
1184.92
1185.24
1185.59
1185.99
1186.45
1186.97
1187.56
1188.21
1188.95
1189.76
1190.66
1191.64
1192.72
1193.87
1195.11
1196.44
1197.86
1199.37
1200.96
1202.65
1204.43
1206.31
1208.28
1210.36
1212.55
1214.84
1217.26
1219.78
1222.44
1225.22
1228.13
1231.19
1234.38
1237.71
1241.2
1244.87
1248.83
1253.12
1257.75
1262.7
1268.09
1274.14
1280.92
1288.42
1296.62
1305.62
1315.5
1326.08
1336.99
1347.95
1358.73
1369.15
1379.19
1388.82
1397.78
1405.78
1412.48
1417.02
1418.29
1416.97
1415.54
1413.62
1405.48
1385.89
1351.11
1301.14
1237.8
1159.09
1062.27
940.874
808.61
714.02
659.858
628.589
610.586
600.917
595.529
592.118
592.223
598.139
609.372
622.574
634.514
644.354
652.703
1097.44
1247.66
1205.15
1178.63
1176.65
1178.11
1179.08
1179.62
1180.04
1180.39
1180.7
1180.98
1181.25
1181.52
1181.82
1182.15
1182.52
1182.94
1183.43
1183.99
1184.62
1185.34
1186.14
1187.03
1188.02
1189.11
1190.3
1191.58
1192.97
1194.46
1196.05
1197.75
1199.55
1201.47
1203.49
1205.63
1207.89
1210.27
1212.77
1215.39
1218.15
1221.05
1224.08
1227.26
1230.58
1234.05
1237.67
1241.44
1245.34
1249.4
1253.67
1258.24
1263.1
1268.26
1273.76
1279.82
1286.53
1293.91
1301.87
1310.44
1319.74
1329.68
1340
1350.36
1360.52
1370.26
1379.48
1388.19
1396.23
1403.35
1409.28
1413.39
1414.63
1413
1410.57
1407.79
1400.78
1383.21
1349.91
1301.17
1242.48
1170.04
1073.67
939.983
796.168
703.662
650.3
621.719
606.632
600.067
597.563
595.904
596.756
602.969
614.173
627.051
638.281
647.291
654.889
1095.61
1234.89
1200.48
1175.17
1173.49
1175.02
1176.01
1176.56
1176.98
1177.33
1177.64
1177.91
1178.18
1178.45
1178.74
1179.08
1179.46
1179.89
1180.4
1180.99
1181.66
1182.42
1183.28
1184.24
1185.3
1186.48
1187.77
1189.17
1190.68
1192.32
1194.07
1195.95
1197.96
1200.09
1202.35
1204.74
1207.27
1209.94
1212.75
1215.7