/*--------------------------------*- C++ -*----------------------------------*\
  =========                 |
  \\      /  F ield         | OpenFOAM: The Open Source CFD Toolbox
   \\    /   O peration     | Website:  https://openfoam.org
    \\  /    A nd           | Version:  9
     \\/     M anipulation  |
\*---------------------------------------------------------------------------*/
FoamFile
{
    format      ascii;
    class       volVectorField;
    location    "3000";
    object      U;
}
// * * * * * * * * * * * * * * * * * * * * * * * * * * * * * * * * * * * * * //

dimensions      [0 1 -1 0 0 0 0];

internalField   nonuniform List<vector> 
13354
(
(0.717875 -0.334333 1.96344e-19)
(0.364947 -0.249606 0)
(-0.0462924 -0.144813 -6.65982e-19)
(-0.595848 -0.0401836 7.49295e-19)
(-0.843734 0.0741076 -1.19491e-19)
(-1.00245 0.153252 1.20607e-19)
(-1.04435 0.197568 0)
(-0.949288 0.255881 6.23899e-21)
(-0.712771 0.327547 0)
(-0.369349 0.386284 6.64248e-20)
(0.0298617 0.37032 6.97958e-20)
(0.420617 0.245354 -7.86214e-20)
(0.747756 0.239191 8.28243e-20)
(0.880766 -0.44789 -1.45666e-19)
(0.584332 -0.395864 0)
(0.238019 -0.311631 -5.80074e-20)
(-0.138211 -0.181868 -2.51864e-19)
(-0.516671 -0.0118792 2.2923e-19)
(-0.812093 0.122571 -1.2237e-19)
(-0.941903 0.240454 9.1313e-20)
(-0.923581 0.350613 -7.8194e-20)
(-0.752953 0.462762 2.30793e-19)
(-0.444997 0.577411 -1.32582e-19)
(-0.0166901 0.650186 6.48885e-20)
(0.450825 0.639936 -1.15415e-19)
(0.844487 0.575417 -2.99688e-20)
(0.987745 -0.508802 -4.58152e-20)
(0.748486 -0.477359 0)
(0.459491 -0.408906 4.13959e-20)
(0.130226 -0.295814 -4.43492e-20)
(-0.266395 -0.129178 -7.86907e-20)
(-0.583199 0.0390468 1.20542e-19)
(-0.746222 0.202075 -9.91285e-20)
(-0.75361 0.334804 -2.32176e-20)
(-0.599559 0.462662 -2.62911e-20)
(-0.333312 0.606445 -5.19892e-20)
(-0.00585765 0.727639 1.4399e-20)
(0.377345 0.764207 0)
(0.722737 0.697374 5.09188e-20)
(1.0403 -0.528364 -3.46264e-20)
(0.852922 -0.516229 0)
(0.621724 -0.469082 0)
(0.353683 -0.383331 1.21783e-20)
(0.0419519 -0.252494 4.69205e-20)
(-0.30972 -0.0655397 -9.97256e-20)
(-0.541749 0.132229 1.15954e-19)
(-0.60705 0.283458 1.16388e-20)
(-0.493751 0.396592 -6.26731e-21)
(-0.251152 0.506663 -2.5549e-20)
(0.0241468 0.623015 8.62893e-20)
(0.311929 0.686144 -2.16265e-20)
(0.589216 0.654918 -5.65196e-20)
(1.06434 -0.517934 1.41044e-20)
(0.919991 -0.521651 -3.27429e-20)
(0.738248 -0.495256 3.88246e-20)
(0.524158 -0.434574 -2.43143e-20)
(0.278028 -0.335177 2.34612e-20)
(-0.00491101 -0.190193 1.04859e-20)
(-0.309481 0.0184023 -4.33815e-20)
(-0.439884 0.200637 2.10025e-20)
(-0.388687 0.3181 -9.62047e-21)
(-0.185675 0.393313 -8.7454e-22)
(0.0552454 0.481254 1.97082e-20)
(0.286545 0.550756 6.63396e-21)
(0.512267 0.554099 2.18262e-20)
(1.07176 -0.488401 -4.45368e-21)
(0.961316 -0.502222 3.83624e-21)
(0.81953 -0.491762 6.64819e-21)
(0.649741 -0.452446 -6.49899e-21)
(0.454293 -0.38032 -8.8981e-21)
(0.233532 -0.271503 -1.8974e-20)
(-0.0285776 -0.116204 0)
(-0.263244 0.0953696 -4.3576e-20)
(-0.287476 0.238201 3.77775e-20)
(-0.137678 0.299019 2.01805e-20)
(0.0779681 0.356263 6.29559e-20)
(0.278531 0.426331 -6.30222e-21)
(0.47121 0.450426 -2.4562e-20)
(1.06817 -0.449043 -5.76914e-21)
(0.98361 -0.467752 -2.30692e-21)
(0.873596 -0.467877 3.99701e-21)
(0.739957 -0.44501 1.1822e-21)
(0.584791 -0.395482 1.76596e-20)
(0.409573 -0.316028 1.47024e-20)
(0.209906 -0.202618 4.72788e-20)
(-0.036366 -0.04246 0)
(-0.174436 0.146115 4.47912e-20)
(-0.0922146 0.225201 1.2737e-19)
(0.0960774 0.254855 -1.30345e-19)
(0.282899 0.319749 1.11041e-20)
(0.453434 0.356925 4.49401e-20)
(1.0589 -0.406664 1.48217e-21)
(0.993697 -0.426635 0)
(0.908369 -0.432883 4.50904e-21)
(0.803647 -0.421524 -6.61613e-21)
(0.680814 -0.38926 -1.19504e-20)
(0.54096 -0.333182 -2.61719e-20)
(0.382942 -0.250682 -1.43241e-20)
(0.196811 -0.135166 4.0659e-20)
(-0.0269671 0.0257166 -3.73177e-19)
(-0.0418662 0.151555 -4.93032e-19)
(0.10966 0.177877 0)
(0.297167 0.230734 0)
(0.452014 0.273394 -4.32479e-20)
(1.04792 -0.365335 1.4852e-21)
(0.996942 -0.384403 0)
(0.930418 -0.39357 0)
(0.848329 -0.389588 0)
(0.751227 -0.36963 0)
(0.63957 -0.331151 2.41073e-20)
(0.512581 -0.271904 -1.97981e-20)
(0.365624 -0.188972 -2.69797e-20)
(0.184766 -0.0707432 9.42967e-20)
(0.0128395 0.0711633 -1.64432e-20)
(0.113007 0.121052 -3.326e-19)
(0.318342 0.160393 1.47445e-19)
(0.461005 0.200693 -1.01709e-20)
(1.03734 -0.327034 -8.13734e-21)
(0.996681 -0.344058 -7.22207e-22)
(0.944245 -0.354065 9.55421e-21)
(0.879625 -0.354441 2.0917e-21)
(0.802771 -0.342824 -1.0609e-20)
(0.713678 -0.317039 -1.41138e-20)
(0.611375 -0.275117 -1.6258e-20)
(0.492818 -0.214855 -2.26708e-20)
(0.348776 -0.131565 -1.04596e-19)
(0.172488 -0.0127655 1.95576e-19)
(0.136035 0.0829116 2.61716e-19)
(0.332453 0.103985 -2.92842e-19)
(0.474605 0.139783 9.11658e-20)
(1.02806 -0.292448 5.00362e-21)
(0.994824 -0.307019 -7.52494e-21)
(0.952873 -0.316675 2.21854e-20)
(0.901565 -0.31936 8.8803e-21)
(0.840552 -0.31319 -8.95483e-21)
(0.76944 -0.296315 2.52964e-20)
(0.687131 -0.267042 3.27532e-20)
(0.591069 -0.223343 0)
(0.475152 -0.163123 5.64333e-20)
(0.326644 -0.0764991 2.09528e-20)
(0.206713 0.0313897 -7.87759e-20)
(0.332717 0.0615208 2.26039e-19)
(0.489625 0.0879232 -1.05944e-19)
(1.02043 -0.261668 -1.11588e-21)
(0.992518 -0.273786 -9.31951e-21)
(0.95831 -0.282485 -1.17359e-20)
(0.917083 -0.286211 -2.37134e-20)
(0.868319 -0.283473 2.80265e-20)
(0.811447 -0.272749 -3.66011e-20)
(0.745304 -0.252624 -1.50517e-20)
(0.667615 -0.221422 1.94329e-20)
(0.57395 -0.177132 -1.07472e-20)
(0.453361 -0.116185 -1.54958e-20)
(0.316157 -0.0248703 0)
(0.332252 0.03015 -1.76274e-20)
(0.503007 0.0457371 1.29606e-20)
(1.01449 -0.234434 5.38208e-22)
(0.990406 -0.244328 9.50238e-21)
(0.961868 -0.251852 0)
(0.928198 -0.255859 1.49849e-20)
(0.888833 -0.255197 -1.91651e-20)
(0.843108 -0.248665 1.34831e-21)
(0.789867 -0.235071 2.8588e-20)
(0.727073 -0.213146 -1.73598e-20)
(0.651135 -0.180803 3.00884e-20)
(0.554279 -0.137094 -1.24883e-20)
(0.428597 -0.0691339 6.83705e-20)
(0.365726 -0.00274479 -6.48812e-21)
(0.506036 0.0153883 6.15675e-21)
(1.01012 -0.210352 -8.54744e-21)
(0.988776 -0.218338 0)
(0.96438 -0.224684 1.32118e-20)
(0.936328 -0.228555 -4.34573e-20)
(0.904076 -0.229089 1.73342e-20)
(0.866973 -0.225367 2.21315e-20)
(0.823935 -0.216405 -1.3273e-20)
(0.773111 -0.201197 1.43223e-20)
(0.711443 -0.177982 9.12064e-21)
(0.633364 -0.14602 -5.15358e-20)
(0.527353 -0.0981529 -4.96933e-20)
(0.429661 -0.0350046 1.42705e-19)
(0.503612 -0.0089311 -5.17654e-21)
(1.00709 -0.189019 7.16358e-21)
(0.987737 -0.195414 9.02179e-21)
(0.966337 -0.200678 0)
(0.942413 -0.204215 2.22258e-20)
(0.915503 -0.205399 -2.54025e-20)
(0.885008 -0.203517 -1.90192e-20)
(0.849931 -0.197805 -2.21129e-20)
(0.808661 -0.187409 0)
(0.758469 -0.171062 -2.97371e-20)
(0.695156 -0.147554 3.83355e-20)
(0.608682 -0.114429 0)
(0.504572 -0.0617214 -1.20992e-19)
(0.511661 -0.0317205 0)
(1.00518 -0.170036 -2.39387e-20)
(0.987279 -0.175146 2.74693e-20)
(0.968025 -0.179474 -2.32245e-20)
(0.947105 -0.182601 1.26804e-20)
(0.924155 -0.184084 0)
(0.898672 -0.183382 1.9075e-20)
(0.869774 -0.179905 1.97282e-21)
(0.836028 -0.17294 0)
(0.795072 -0.161663 2.89578e-20)
(0.743408 -0.144434 -3.01191e-20)
(0.673591 -0.121641 -4.70984e-21)
(0.57723 -0.0805103 5.71501e-21)
(0.536114 -0.0520321 0)
(1.00415 -0.153068 7.72104e-21)
(0.987326 -0.157158 -9.60028e-22)
(0.96961 -0.160703 1.11634e-20)
(0.950848 -0.163419 0)
(0.930814 -0.164983 0)
(0.909091 -0.164998 2.47676e-20)
(0.884927 -0.16302 1.09099e-20)
(0.857071 -0.158461 0)
(0.823489 -0.150857 -2.31665e-20)
(0.781122 -0.138321 2.91378e-20)
(0.724656 -0.122739 0)
(0.641315 -0.0915106 -2.4041e-21)
(0.573023 -0.0682584 2.86062e-21)
(1.00382 -0.137829 2.84677e-20)
(0.987777 -0.141125 -2.66328e-20)
(0.971152 -0.144038 0)
(0.953951 -0.146373 0)
(0.936057 -0.147884 -1.9973e-20)
(0.917139 -0.148299 -7.6678e-22)
(0.896576 -0.147289 -2.47711e-20)
(0.873297 -0.144373 1.84234e-20)
(0.845549 -0.139374 2.291e-20)
(0.810624 -0.130295 -4.59433e-20)
(0.764644 -0.119832 3.47586e-21)
(0.695012 -0.0961576 -3.90794e-21)
(0.615679 -0.0795719 -7.3121e-20)
(1.00399 -0.124087 -2.1044e-20)
(0.98852 -0.126774 2.42222e-20)
(0.972682 -0.12918 -9.52091e-22)
(0.956619 -0.131168 -1.05437e-20)
(0.940307 -0.132561 3.67342e-20)
(0.923492 -0.133162 0)
(0.905663 -0.132742 1.64973e-20)
(0.88591 -0.130914 -1.83978e-20)
(0.862739 -0.12771 3.66134e-20)
(0.833766 -0.121126 5.07362e-20)
(0.795981 -0.114329 -5.09376e-20)
(0.738729 -0.0961345 4.77798e-20)
(0.658702 -0.085937 7.18885e-20)
(1.00452 -0.111667 0)
(0.989475 -0.113875 -2.40861e-20)
(0.974218 -0.115859 2.55064e-20)
(0.959006 -0.117529 3.15912e-20)
(0.943881 -0.118758 -5.65625e-20)
(0.928654 -0.119411 -2.43018e-20)
(0.912901 -0.11934 -7.30916e-21)
(0.895863 -0.118206 1.56327e-20)
(0.876272 -0.11621 -4.48446e-20)
(0.852016 -0.111393 -4.83939e-21)
(0.820669 -0.107197 4.93612e-20)
(0.773784 -0.092933 -4.93439e-20)
(0.699037 -0.0879129 5.14149e-20)
(1.00533 -0.100439 0)
(0.990608 -0.102245 6.3308e-21)
(0.975807 -0.103855 -2.04066e-21)
(0.961248 -0.10522 8.92259e-21)
(0.947025 -0.10625 1.9437e-21)
(0.933 -0.10686 4.0533e-20)
(0.918827 -0.106967 6.20491e-21)
(0.90387 -0.106267 -2.67545e-20)
(0.887048 -0.105095 2.92258e-20)
(0.866522 -0.101531 0)
(0.840248 -0.0991655 -4.66392e-21)
(0.801754 -0.0877812 4.95781e-21)
(0.735311 -0.0864501 -4.90603e-20)
(1.00633 -0.0903208 -1.12412e-20)
(0.991923 -0.0917768 -1.38961e-20)
(0.977529 -0.0930317 -1.26933e-21)
(0.963498 -0.0940736 1.63496e-20)
(0.949954 -0.0948656 1.99975e-20)
(0.936817 -0.0953653 -4.23307e-20)
(0.923812 -0.0955339 -2.20996e-20)
(0.91041 -0.095105 3.33153e-20)
(0.8957 -0.0944942 -9.74405e-21)
(0.878075 -0.0918669 2.83459e-20)
(0.855803 -0.0907935 -3.07473e-20)
(0.82402 -0.0816738 0)
(0.767057 -0.0826846 -3.75342e-20)
(1.00749 -0.0812576 5.59395e-21)
(0.99344 -0.0824017 1.23518e-20)
(0.979466 -0.08332 -7.91471e-21)
(0.96589 -0.0840367 -1.63859e-20)
(0.952852 -0.0845601 0)
(0.94033 -0.0848865 2.01878e-20)
(0.928117 -0.085039 2.14321e-21)
(0.915785 -0.0847818 -1.58981e-20)
(0.902579 -0.0845695 -3.22637e-20)
(0.887122 -0.0826978 -2.82803e-20)
(0.867964 -0.0825442 -4.08882e-22)
(0.84149 -0.0753828 3.80547e-21)
(0.794021 -0.0777565 3.63288e-20)
(1.00875 -0.0732127 0)
(0.995151 -0.0740862 -5.90746e-21)
(0.981651 -0.0746995 -1.38481e-20)
(0.968493 -0.0751195 6.91298e-21)
(0.955823 -0.0753923 0)
(0.943668 -0.075538 -1.66113e-20)
(0.931889 -0.0756272 2.00492e-20)
(0.920146 -0.075478 2.17785e-20)
(0.907835 -0.0755678 -2.11528e-20)
(0.89382 -0.0743649 0)
(0.876938 -0.0749095 5.4619e-20)
(0.854562 -0.069559 2.42443e-20)
(0.815845 -0.0726964 -1.81771e-21)
(1.01006 -0.0661416 -4.42088e-21)
(0.996994 -0.0668042 9.98537e-21)
(0.98401 -0.0671943 0)
(0.971244 -0.0673941 0)
(0.958828 -0.0674794 1.37202e-20)
(0.946813 -0.0675004 2.46781e-20)
(0.935114 -0.0675689 -3.97788e-21)
(0.923475 -0.0675343 -9.27594e-21)
(0.911443 -0.0678864 5.00422e-20)
(0.898127 -0.067305 1.5027e-20)
(0.882666 -0.0684241 -2.69536e-20)
(0.863242 -0.0648009 -2.25252e-20)
(0.831997 -0.0684174 -3.52095e-40)
(1.01133 -0.0600101 -8.05731e-21)
(0.998825 -0.0605312 -8.86747e-22)
(0.98634 -0.0608083 0)
(0.9739 -0.0609305 0)
(0.961605 -0.0609787 -2.60534e-20)
(0.949511 -0.0610047 -1.35277e-20)
(0.937553 -0.0611592 0)
(0.925545 -0.0613374 0)
(0.913176 -0.0620114 -4.03452e-20)
(0.899825 -0.0620666 -3.34545e-20)
(0.884932 -0.0637043 2.55452e-21)
(0.867364 -0.0617016 -2.60856e-21)
(0.841992 -0.065676 0)
(1.01243 -0.0547725 -3.21677e-21)
(1.00041 -0.0552498 -4.89907e-21)
(0.9883 -0.0555565 0)
(0.976033 -0.0557723 5.46359e-21)
(0.963668 -0.0559819 1.52862e-21)
(0.951235 -0.0562365 7.13249e-22)
(0.938674 -0.0566837 6.73505e-21)
(0.925853 -0.0572479 1.40743e-20)
(0.912596 -0.0583688 3.17955e-20)
(0.898547 -0.0591444 3.37358e-20)
(0.883453 -0.0613332 0)
(0.866776 -0.0608202 0)
(0.845638 -0.0650862 0)
(1.01323 -0.0503915 1.3876e-20)
(1.00145 -0.0509268 0)
(0.989422 -0.0514266 -4.43179e-21)
(0.977036 -0.0519478 4.61155e-21)
(0.964308 -0.0525481 1.10108e-20)
(0.951213 -0.0532719 -1.07127e-20)
(0.937681 -0.0542737 1.46937e-20)
(0.923633 -0.0554744 -1.37471e-20)
(0.909039 -0.0572434 -1.43108e-21)
(0.893798 -0.0588431 -3.3273e-20)
(0.877951 -0.0616477 1.6724e-20)
(0.861463 -0.062474 -1.99775e-21)
(0.843178 -0.0670158 0)
(1.01351 -0.0468434 -6.33443e-21)
(1.00156 -0.0475606 6.61976e-21)
(0.989153 -0.0484076 0)
(0.976205 -0.0494273 7.90527e-21)
(0.962679 -0.0506567 0)
(0.948504 -0.052111 1.05968e-20)
(0.93361 -0.0539139 -1.14141e-20)
(0.917983 -0.0559753 -1.08335e-20)
(0.901738 -0.0585994 -1.44128e-21)
(0.885049 -0.0611376 1.3673e-20)
(0.868239 -0.0646356 -1.43512e-20)
(0.851685 -0.0665883 -8.97662e-22)
(0.835405 -0.0713634 9.0004e-22)
(1.01302 -0.0441161 -1.0119e-20)
(1.0003 -0.0451411 0)
(0.98689 -0.0464945 0)
(0.972784 -0.048189 -4.0806e-21)
(0.957914 -0.0502269 2.12201e-22)
(0.942169 -0.0526103 -1.23511e-20)
(0.925514 -0.0554166 2.38624e-21)
(0.90805 -0.0585078 8.19983e-21)
(0.890066 -0.0620931 -1.1273e-20)
(0.87198 -0.065586 1.04852e-20)
(0.854383 -0.0697921 -1.48758e-21)
(0.838005 -0.0726224 1.49312e-21)
(0.823582 -0.0775444 0)
(1.01139 -0.0422182 4.95721e-21)
(0.997179 -0.0436806 0)
(0.982033 -0.0456645 2.95217e-21)
(0.966075 -0.0481645 2.77287e-21)
(0.949244 -0.0511455 0)
(0.931447 -0.0545594 1.11428e-21)
(0.912727 -0.0584302 -7.44171e-21)
(0.893333 -0.0625797 0)
(0.873771 -0.0671213 -1.07714e-20)
(0.854714 -0.0714492 -7.88557e-21)
(0.836963 -0.0762185 1.27814e-21)
(0.821485 -0.0795908 -1.27874e-21)
(0.809372 -0.0845045 0)
(1.00818 -0.0411307 3.47029e-21)
(0.991668 -0.0431682 -8.38813e-21)
(0.974024 -0.0458918 2.16258e-21)
(0.95553 -0.0492572 -8.06798e-21)
(0.936171 -0.0532041 -2.32369e-21)
(0.915934 -0.0576446 5.57317e-22)
(0.895032 -0.0625166 1.68449e-20)
(0.873919 -0.0675737 0)
(0.853294 -0.0728645 6.32384e-21)
(0.83403 -0.0777633 1.97506e-21)
(0.817114 -0.0828178 0)
(0.803665 -0.0863116 0)
(0.79481 -0.0909497 0)
(1.00282 -0.040815 -6.41364e-21)
(0.983254 -0.0435375 2.74208e-22)
(0.962433 -0.0470559 5.80308e-21)
(0.940822 -0.051297 2.72052e-21)
(0.918548 -0.0561445 2.81155e-21)
(0.89577 -0.0614529 7.18911e-21)
(0.872891 -0.0671008 -6.14501e-21)
(0.850581 -0.0727872 3.91498e-21)
(0.829775 -0.0784707 1.55152e-21)
(0.811471 -0.083521 0)
(0.796695 -0.0884483 0)
(0.786537 -0.0916111 6.89844e-21)
(0.782033 -0.0956483 0)
(0.994729 -0.0411507 -2.48677e-21)
(0.971469 -0.0446503 2.59778e-21)
(0.946995 -0.0489691 1.59368e-21)
(0.92197 -0.0539933 -1.64476e-21)
(0.896717 -0.0595744 0)
(0.871638 -0.0654998 -3.12028e-21)
(0.847413 -0.0715724 -1.8338e-21)
(0.824906 -0.0774534 -5.40067e-21)
(0.805119 -0.083071 0)
(0.789111 -0.0878009 -3.56844e-21)
(0.777916 -0.0921428 -1.42654e-21)
(0.772456 -0.0945113 -1.18949e-21)
(0.773411 -0.0975959 0)
(0.983321 -0.0419592 0)
(0.956007 -0.0462588 0)
(0.927721 -0.0513197 -1.18598e-21)
(0.899363 -0.056972 1.22294e-21)
(0.871531 -0.0630156 0)
(0.844907 -0.0691902 -3.65569e-21)
(0.820368 -0.0752649 9.65003e-22)
(0.798952 -0.0808721 0)
(0.781706 -0.0859145 0)
(0.769547 -0.089829 6.91385e-21)
(0.763247 -0.0931615 4.77677e-21)
(0.763579 -0.0943559 -1.0639e-20)
(0.770964 -0.0961898 4.71185e-21)
(0.997177 -0.0387419 3.56639e-22)
(0.968166 -0.0429919 1.17198e-21)
(0.936784 -0.0480446 -1.22303e-21)
(0.904982 -0.0536948 0)
(0.873872 -0.0597287 0)
(0.844331 -0.0659041 1.06631e-21)
(0.817362 -0.071919 -1.08628e-21)
(0.794026 -0.0775145 3.02682e-21)
(0.775313 -0.0823719 0)
(0.762102 -0.0863875 -8.0254e-22)
(0.755167 -0.0890829 2.881e-22)
(0.755087 -0.0910336 -4.66362e-21)
(0.762179 -0.0907691 4.93715e-21)
(0.776464 -0.0911536 -4.75903e-21)
(1.0879 -0.0234507 7.725e-23)
(1.08067 -0.0245828 -9.51163e-22)
(1.07288 -0.0258232 8.00211e-22)
(1.06365 -0.0271861 -2.7234e-22)
(1.05232 -0.0289442 -3.83642e-22)
(1.04233 -0.0305014 4.76201e-22)
(1.03084 -0.0321103 2.05684e-23)
(1.01108 -0.0348161 8.48824e-22)
(0.982598 -0.0388979 -3.57595e-22)
(0.949145 -0.043955 -6.23138e-22)
(0.914114 -0.0496144 -6.21039e-22)
(0.879524 -0.0556322 8.19186e-22)
(0.846776 -0.0617315 0)
(0.817001 -0.0676334 -6.8799e-22)
(0.79129 -0.0730577 7.01212e-22)
(0.770797 -0.0777408 -1.35418e-21)
(0.756488 -0.081418 0)
(0.748964 -0.0840191 5.66434e-22)
(0.748479 -0.0852 -1.40018e-21)
(0.755325 -0.0855352 -6.26946e-22)
(0.769676 -0.0836668 -2.16253e-21)
(0.791479 -0.0824488 -1.84568e-22)
(1.08611 -0.0208371 0)
(1.07842 -0.0219919 -1.52056e-21)
(1.07004 -0.0232616 8.46675e-22)
(1.05971 -0.0247769 -2.58201e-22)
(1.04796 -0.0265875 -2.20578e-22)
(1.03781 -0.0281131 -4.75266e-22)
(1.02303 -0.03023 -2.08178e-23)
(0.997645 -0.0338675 0)
(0.963897 -0.0388499 0)
(0.926498 -0.0445627 4.26198e-23)
(0.888724 -0.0505931 7.77747e-22)
(0.852676 -0.0566486 -3.51352e-22)
(0.819851 -0.0624442 2.2191e-22)
(0.791593 -0.0676751 -2.94093e-22)
(0.769113 -0.0720778 0)
(0.753418 -0.0754457 8.42624e-22)
(0.745011 -0.0776134 5.43236e-22)
(0.744289 -0.0785446 0)
(0.751289 -0.0780206 0)
(0.765888 -0.0765879 -8.88468e-22)
(0.787647 -0.0730853 2.53697e-21)
(0.816567 -0.0702612 1.79175e-21)
(1.08435 -0.017786 1.89609e-21)
(1.07612 -0.0189111 1.77318e-21)
(1.06691 -0.0201907 9.41576e-22)
(1.05546 -0.0218116 8.40223e-22)
(1.04357 -0.0235204 -2.05612e-22)
(1.03201 -0.0251396 0)
(1.01173 -0.0280551 4.26605e-22)
(0.979845 -0.0326925 2.95347e-22)
(0.941318 -0.0384124 -3.11217e-22)
(0.901026 -0.0445206 4.4188e-22)
(0.861886 -0.0505998 -1.80284e-22)
(0.826098 -0.0563171 -1.66387e-22)
(0.795267 -0.0613876 2.90197e-22)
(0.770722 -0.0655345 0)
(0.753346 -0.0685637 -9.04441e-23)
(0.744049 -0.0703197 0)
(0.743162 -0.0707132 -1.48202e-22)
(0.750381 -0.0698114 1.50844e-22)
(0.765158 -0.0675213 -2.18074e-22)
(0.787388 -0.0643029 1.04616e-21)
(0.816776 -0.0592096 -1.29387e-22)
(0.852945 -0.0547584 -1.76779e-21)
(1.08279 -0.0142612 -9.45669e-22)
(1.07388 -0.0153099 8.04581e-24)
(1.06361 -0.0165778 -1.96766e-21)
(1.05124 -0.0181892 0)
(1.03909 -0.0197064 -1.0213e-21)
(1.02383 -0.0217258 1.03072e-21)
(0.996028 -0.0256965 -9.18384e-22)
(0.957715 -0.0312364 5.09213e-22)
(0.915619 -0.0374087 -4.34184e-22)
(0.873997 -0.0435706 9.88551e-22)
(0.835498 -0.0492844 1.25624e-23)
(0.802131 -0.0542407 -5.23575e-22)
(0.77544 -0.058178 1.48296e-22)
(0.756654 -0.060885 2.7615e-22)
(0.746567 -0.062215 1.30362e-22)
(0.745274 -0.0621384 -1.1255e-22)
(0.75257 -0.0606587 -6.39588e-23)
(0.768146 -0.0578851 7.6112e-23)
(0.791497 -0.0537822 -1.03783e-22)
(0.821423 -0.0488495 5.43757e-23)
(0.857335 -0.0424156 -9.17638e-23)
(0.899043 -0.0366187 2.8249e-22)
(1.08158 -0.0102735 -8.71713e-22)
(1.07183 -0.011205 9.25167e-22)
(1.06044 -0.0124117 8.44053e-23)
(1.04746 -0.0138448 -1.00687e-21)
(1.03378 -0.0152554 1.04535e-21)
(1.01172 -0.0181129 -1.06209e-21)
(0.975311 -0.0232353 0)
(0.931974 -0.0293947 -5.19517e-22)
(0.88828 -0.0356416 1.05556e-21)
(0.847386 -0.0414426 -5.18878e-22)
(0.811778 -0.046356 -4.85743e-22)
(0.783253 -0.0501234 -5.25615e-22)
(0.763235 -0.0525287 4.11791e-22)
(0.752168 -0.053493 -6.69708e-22)
(0.750665 -0.0529324 -3.43761e-22)
(0.75853 -0.0509059 2.07816e-22)
(0.775265 -0.047473 -9.09812e-23)
(0.799346 -0.0429032 -7.97104e-23)
(0.830035 -0.0372575 2.32392e-23)
(0.866646 -0.0308888 0)
(0.90881 -0.0234286 -1.45127e-23)
(0.954243 -0.0167352 -2.04884e-22)
(1.08089 -0.005883 0)
(1.07019 -0.0066517 -7.31934e-22)
(1.05785 -0.00767799 1.04181e-21)
(1.04413 -0.00879152 -8.25674e-22)
(1.02617 -0.0104276 1.75846e-21)
(0.994271 -0.0145395 -9.38325e-22)
(0.94998 -0.0206462 0)
(0.904079 -0.026985 8.40471e-22)
(0.861186 -0.0328735 -1.32118e-21)
(0.823663 -0.0378384 4.80832e-22)
(0.793685 -0.0414985 3.55754e-22)
(0.772374 -0.043701 3.31289e-22)
(0.760903 -0.0442971 -9.73172e-22)
(0.759577 -0.0432721 4.04179e-22)
(0.768248 -0.0406957 2.86369e-22)
(0.785598 -0.0367705 -1.77987e-22)
(0.81089 -0.0316451 5.29516e-23)
(0.843173 -0.0255173 2.84842e-23)
(0.881089 -0.0186233 3.00434e-23)
(0.921871 -0.0115858 4.95475e-23)
(0.964756 -0.00437496 -8.13654e-23)
(1.00814 0.00191711 0)
(1.0905 -0.000904062 0)
(1.08094 -0.00118455 6.0513e-22)
(1.06937 -0.00171606 -4.24744e-22)
(1.05649 -0.00236948 8.53984e-22)
(1.04062 -0.00315842 -9.86196e-22)
(1.0141 -0.00553202 2.66462e-22)
(0.970827 -0.0110997 0)
(0.921467 -0.0177591 -1.3891e-22)
(0.876326 -0.0237655 -3.79212e-22)
(0.837114 -0.0288098 5.64303e-22)
(0.80576 -0.0324757 3.78204e-22)
(0.783757 -0.0345068 -5.64243e-22)
(0.772364 -0.0347893 4.7585e-22)
(0.771501 -0.0333872 3.21203e-22)
(0.780669 -0.0303987 -8.05579e-23)
(0.799243 -0.0260001 2.62739e-22)
(0.826486 -0.0203438 6.6589e-23)
(0.859834 -0.0139506 0)
(0.896898 -0.00720732 -2.23827e-23)
(0.936163 -0.000419621 5.67687e-23)
(0.975724 0.00595974 -2.2095e-22)
(1.01499 0.0118978 -8.43277e-23)
(1.053 0.016931 0)
(1.09217 0.0036527 7.42038e-24)
(1.08205 0.00367673 -4.3701e-22)
(1.07001 0.00350908 -2.44167e-22)
(1.05676 0.00340507 2.21584e-22)
(1.03547 0.00273394 1.12674e-23)
(0.995746 -0.000841821 2.86238e-22)
(0.941914 -0.00766816 0)
(0.892194 -0.0142459 -1.52973e-22)
(0.851408 -0.0193911 0)
(0.819026 -0.0231056 1.35647e-22)
(0.796883 -0.0250818 1.01687e-22)
(0.7854 -0.0251974 -2.41174e-22)
(0.785221 -0.0235113 -1.26968e-22)
(0.795396 -0.0202026 0)
(0.816093 -0.0153569 -2.36652e-23)
(0.843891 -0.00965037 0)
(0.876841 -0.00336305 -5.7551e-23)
(0.912523 0.00297094 0)
(0.949126 0.00905389 -9.04309e-23)
(0.985591 0.0147096 2.95222e-22)
(1.02084 0.0197168 1.78544e-22)
(1.05452 0.0240675 -1.37626e-22)
(1.08609 0.0276287 2.88555e-22)
(1.09503 0.00812008 1.23362e-21)
(1.08467 0.00851385 9.04171e-22)
(1.07292 0.0088527 -2.68435e-22)
(1.05862 0.00934858 5.39756e-22)
(1.02685 0.00844792 -9.33885e-22)
(0.970101 0.00354568 7.40336e-22)
(0.910075 -0.0038843 -8.39914e-22)
(0.865605 -0.00965433 -2.16362e-22)
(0.83276 -0.0134581 -9.79578e-22)
(0.81021 -0.0154906 5.26118e-22)
(0.799064 -0.0156014 5.10579e-22)
(0.800021 -0.0136909 3.42183e-22)
(0.81213 -0.0102012 0)
(0.832925 -0.0054872 0)
(0.860761 7.17701e-05 -8.17566e-22)
(0.892408 0.00582094 0)
(0.926011 0.0115092 0)
(0.959896 0.0168179 -5.47757e-22)
(0.99299 0.0216004 -6.7814e-23)
(1.02473 0.0257899 -4.7415e-22)
(1.05459 0.0293101 -9.77137e-25)
(1.0824 0.0321826 6.86378e-22)
(1.10785 0.0344167 -2.54718e-22)
(1.09932 0.0122602 -2.83741e-21)
(1.08921 0.0130658 -1.7497e-21)
(1.07827 0.0139329 0)
(1.06084 0.0148239 -1.2829e-21)
(1.01386 0.0134094 2.39318e-21)
(0.939482 0.00766112 -1.7635e-21)
(0.878981 0.000733678 1.99942e-21)
(0.844937 -0.00355461 6.61572e-22)
(0.822927 -0.00565321 2.05486e-21)
(0.812634 -0.00581644 1.83745e-22)
(0.814428 -0.00410657 -2.83085e-21)
(0.826996 -0.0007607 -1.68472e-22)
(0.848087 0.00358255 0)
(0.874769 0.00849318 -4.70952e-22)
(0.904978 0.0135866 1.20012e-21)
(0.936309 0.018446 4.55521e-22)
(0.967471 0.0229231 -4.47399e-22)
(0.997534 0.0268702 3.66143e-22)
(1.026 0.0302462 8.409e-22)
(1.05266 0.0330464 0)
(1.0773 0.0352677 -4.51318e-22)
(1.09985 0.036944 -7.88587e-22)
(1.12012 0.0381307 -1.68822e-40)
(1.10509 0.0158363 -2.26122e-21)
(1.09565 0.0169998 -2.13402e-22)
(1.08549 0.0182939 1.31774e-21)
(1.06224 0.0193052 1.24556e-21)
(0.997402 0.017366 -3.16857e-21)
(0.908835 0.0116286 5.77063e-21)
(0.854464 0.00629155 -4.13982e-21)
(0.833904 0.00395841 1.16451e-21)
(0.824299 0.0036634 -1.00397e-21)
(0.826248 0.00507469 -2.19948e-21)
(0.838737 0.00787133 -2.52591e-22)
(0.859128 0.0116342 -1.53715e-22)
(0.884785 0.015789 1.71571e-21)
(0.913135 0.0200082 -1.12541e-21)
(0.942453 0.0240279 -1.17042e-21)
(0.971207 0.027636 5.46138e-22)
(0.998676 0.0307799 5.61392e-22)
(1.02445 0.033415 2.58838e-22)
(1.04838 0.0355506 -4.67951e-22)
(1.07045 0.0372115 -2.51175e-22)
(1.09062 0.0384212 -5.94133e-23)
(1.10885 0.0392097 -5.40624e-23)
(1.12505 0.0396361 -1.93731e-40)
(1.11211 0.0186654 1.97575e-22)
(1.10368 0.0201039 1.49225e-21)
(1.09371 0.0216652 -3.14904e-21)
(1.06248 0.0226083 3.44319e-21)
(0.980215 0.0204378 -6.05783e-21)
(0.883848 0.0156607 2.32429e-21)
(0.840816 0.0125243 0)
(0.833832 0.0120872 -1.26967e-21)
(0.835295 0.0132159 1.31726e-21)
(0.84659 0.0155016 1.83444e-24)
(0.865731 0.0185381 3.71497e-21)
(0.889762 0.0219383 0)
(0.91639 0.0253047 0)
(0.9437 0.0284542 0)
(0.970506 0.0312537 1.71029e-21)
(0.995936 0.0336296 -5.88521e-22)
(1.01965 0.0355849 -8.28354e-22)
(1.04152 0.037127 6.31248e-24)
(1.06159 0.0382837 2.77375e-22)
(1.07992 0.0390868 5.37732e-22)
(1.09654 0.0395641 1.14687e-21)
(1.11145 0.0397348 9.21641e-22)
(1.12461 0.039646 -6.14671e-23)
(1.12014 0.0206696 1.95965e-22)
(1.11283 0.0222879 -3.1483e-21)
(1.10226 0.0239617 -1.71955e-21)
(1.0623 0.0247919 1.86661e-21)
(0.965978 0.0228512 2.03076e-21)
(0.868757 0.0197171 0)
(0.838752 0.0187485 2.53329e-21)
(0.842709 0.0197171 -1.26636e-21)
(0.851968 0.0216567 3.79715e-23)
(0.868615 0.0241491 -1.25728e-21)
(0.890457 0.0268541 -1.20486e-21)
(0.914893 0.0295145 1.24336e-21)
(0.940221 0.0319079 0)
(0.965165 0.0339762 0)
(0.988978 0.0356785 5.90599e-22)
(1.01119 0.0370179 -1.18611e-23)
(1.03166 0.0380274 0)
(1.05039 0.0387352 2.79171e-22)
(1.06746 0.0391712 5.37572e-22)
(1.08295 0.0393647 -1.33893e-21)
(1.09693 0.0393403 -4.83627e-24)
(1.10941 0.0391032 -5.59648e-24)
(1.12039 0.038687 -2.08059e-40)
(1.12885 0.0218373 3.08674e-21)
(1.1226 0.0235394 0)
(1.11087 0.0252137 1.68312e-21)
(1.06308 0.025997 1.49917e-23)
(0.957878 0.0247055 0)
(0.864944 0.0234279 2.36051e-21)
(0.846173 0.0241505 -3.2846e-23)
(0.857099 0.0259313 -2.42631e-21)
(0.870425 0.0281463 1.21974e-21)
(0.888788 0.0304286 -1.20524e-21)
(0.910352 0.0325619 -1.17903e-21)
(0.933128 0.0344249 -2.34612e-21)
(0.95598 0.0359249 3.4693e-23)
(0.978096 0.0370834 -1.13922e-21)
(0.999018 0.0379171 0)
(1.01847 0.038467 -5.66634e-22)
(1.03639 0.0387777 -5.65552e-22)
(1.05277 0.038884 0)
(1.06768 0.038814 -1.06383e-21)
(1.08118 0.0385928 5.30574e-22)
(1.09331 0.0382383 -6.40464e-22)
(1.10412 0.0377446 -3.7488e-22)
(1.11362 0.0371342 0)
(1.13794 0.0222005 -3.03369e-21)
(1.1326 0.0239013 -1.56677e-21)
(1.11958 0.0255111 0)
(1.06618 0.026349 -1.81082e-21)
(0.957563 0.0259341 0)
(0.87129 0.0263153 2.22488e-21)
(0.859996 0.0281342 -4.61521e-21)
(0.873935 0.0302629 1.13482e-21)
(0.888139 0.0324263 -1.14326e-21)
(0.905525 0.0343385 -1.09944e-21)
(0.924888 0.0358997 2.23726e-21)
(0.944849 0.0370872 1.14068e-21)
(0.964706 0.0378893 6.34696e-23)
(0.983952 0.0383723 2.72342e-21)
(1.00228 0.0385815 -5.48511e-22)
(1.01948 0.0385738 1.06375e-21)
(1.03547 0.0383987 -7.63919e-22)
(1.0502 0.0380925 5.15371e-22)
(1.06367 0.037681 2.64641e-22)
(1.07587 0.0371857 -1.20847e-22)
(1.08684 0.0366208 2.38795e-22)
(1.09659 0.0359725 -1.17646e-22)
(1.10517 0.0352541 -4.27363e-22)
(1.14707 0.0218235 5.81463e-21)
(1.1425 0.0234566 -1.48153e-21)
(1.12854 0.0249699 3.11522e-21)
(1.07242 0.025935 -1.6905e-21)
(0.965029 0.0264007 -1.80988e-21)
(0.885479 0.0280345 2.04458e-21)
(0.87755 0.0304558 -2.11065e-21)
(0.8913 0.0326578 1.04045e-21)
(0.904068 0.0346397 -1.05248e-21)
(0.918753 0.0361947 4.43884e-23)
(0.934799 0.0373054 -2.56725e-23)
(0.951356 0.038009 1.01624e-21)
(0.968026 0.0383364 -1.45013e-21)
(0.984483 0.0383721 -7.47622e-23)
(1.00049 0.0381745 1.42664e-23)
(1.01583 0.0378064 -1.42537e-23)
(1.03035 0.0373175 5.05549e-22)
(1.04395 0.0367439 2.17117e-22)
(1.05651 0.0361116 4.63994e-22)
(1.06798 0.0354421 -2.3001e-22)
(1.0783 0.0347466 4.16394e-22)
(1.0875 0.0340083 -5.22206e-23)
(1.0956 0.0332349 4.82642e-22)
(1.15597 0.0208011 0)
(1.15209 0.0223188 5.93686e-23)
(1.13782 0.0237205 -2.97988e-21)
(1.08191 0.0248291 1.4755e-21)
(0.9791 0.0260181 1.7735e-21)
(0.905146 0.0284687 0)
(0.897104 0.0311672 -9.38249e-22)
(0.908407 0.033323 5.54872e-23)
(0.918261 0.0351175 0)
(0.929264 0.036411 0)
(0.941421 0.0372325 9.22774e-22)
(0.954297 0.0376466 -9.4052e-22)
(0.967704 0.0377023 9.70239e-22)
(0.981427 0.0374882 -1.41033e-21)
(0.995252 0.0370648 8.99712e-22)
(1.00894 0.0364946 -1.41254e-23)
(1.02227 0.035827 -6.57152e-22)
(1.03504 0.0350985 -4.45567e-22)
(1.04705 0.034336 2.12341e-22)
(1.05816 0.0335624 -9.98821e-23)
(1.06824 0.0327896 -3.18842e-22)
(1.07727 0.0320014 4.04098e-22)
(1.08527 0.0312029 2.97293e-22)
(1.16439 0.0192506 -2.45385e-21)
(1.16119 0.0206221 2.6204e-21)
(1.14739 0.0219013 2.63004e-21)
(1.09415 0.0231174 -2.85283e-21)
(0.998098 0.0248017 1.41273e-21)
(0.92839 0.0277036 0)
(0.917791 0.0304936 0)
(0.92522 0.032577 8.82428e-22)
(0.93135 0.0342365 0)
(0.938221 0.0353831 0)
(0.946247 0.0360649 0)
(0.955319 0.036356 4.02691e-22)
(0.965413 0.0363062 3.40543e-22)
(0.976387 0.0359988 -3.71424e-22)
(0.988038 0.0354922 3.88918e-22)
(1.0001 0.0348455 -7.56027e-22)
(1.0123 0.0341059 -1.87869e-22)
(1.02435 0.0333099 1.90512e-22)
(1.03597 0.032487 0)
(1.04693 0.0316628 -3.28129e-22)
(1.05704 0.030851 0)
(1.06618 0.0300393 -3.19221e-22)
(1.07434 0.0292332 -3.87989e-22)
(1.17217 0.0172997 0)
(1.16966 0.018509 1.0479e-21)
(1.15701 0.0196559 1.07529e-21)
(1.1083 0.0209145 0)
(1.02032 0.0228625 -1.39568e-21)
(0.953864 0.0259427 0)
(0.939292 0.0287291 6.57697e-22)
(0.942102 0.0307545 -6.57094e-22)
(0.944164 0.0323414 -6.54773e-22)
(0.946789 0.0334414 0)
(0.950659 0.0341017 0)
(0.955906 0.0343947 3.44184e-22)
(0.962633 0.0343632 -1.44805e-21)
(0.970771 0.0340813 7.21548e-22)
(0.980139 0.0336002 -3.0711e-22)
(0.990459 0.0329734 3.62801e-22)
(1.00141 0.0322458 2.95428e-22)
(1.01266 0.0314541 -2.88582e-22)
(1.02388 0.0306287 0)
(1.03474 0.0297973 4.0482e-22)
(1.04497 0.0289775 -7.43683e-23)
(1.05439 0.0281628 0)
(1.0629 0.0273613 -2.29449e-40)
(1.17917 0.01508 1.90531e-21)
(1.17738 0.0161197 -1.54067e-22)
(1.16642 0.017125 -1.07603e-21)
(1.12341 0.0183536 1.02056e-21)
(1.04423 0.0203704 -2.10094e-21)
(0.980602 0.0234391 0)
(0.961578 0.0261686 -1.10905e-22)
(0.959488 0.0281587 6.55105e-22)
(0.957468 0.0297228 7.01346e-22)
(0.955978 0.0308455 5.13755e-22)
(0.955805 0.0315641 -5.47985e-22)
(0.957273 0.0319437 -5.90023e-22)
(0.960602 0.0320155 0)
(0.965792 0.0318408 2.5279e-22)
(0.972694 0.0314631 5.58004e-22)
(0.981046 0.0309302 2.42958e-22)
(0.990522 0.0302811 -1.67642e-22)
(1.00076 0.0295516 3.15079e-23)
(1.01139 0.0287723 6.6997e-23)
(1.02203 0.0279731 1.22443e-22)
(1.03235 0.0271749 -6.03595e-23)
(1.04207 0.0263765 -2.14571e-22)
(1.05101 0.0255913 1.39172e-23)
(1.18529 0.0127092 0)