/*--------------------------------*- C++ -*----------------------------------*\
  =========                 |
  \\      /  F ield         | OpenFOAM: The Open Source CFD Toolbox
   \\    /   O peration     | Website:  https://openfoam.org
    \\  /    A nd           | Version:  9
     \\/     M anipulation  |
\*---------------------------------------------------------------------------*/
FoamFile
{
    format      ascii;
    class       volScalarField;
    location    "750";
    object      gammaInt;
}
// * * * * * * * * * * * * * * * * * * * * * * * * * * * * * * * * * * * * * //

dimensions      [0 0 0 0 0 0 0];

internalField   nonuniform List<scalar> 
13446
(
0.999912
0.999918
0.999788
0.999924
0.999802
0.999713
0.999647
0.999597
0.99993
0.999815
0.999731
0.999668
0.999619
0.99958
0.999934
0.999828
0.99975
0.999689
0.99964
0.999601
0.999569
0.999938
0.999842
0.999769
0.999709
0.99966
0.999621
0.99959
0.999563
0.999537
0.999513
0.99949
0.999465
0.99944
0.999413
0.999384
0.999354
0.999322
0.99929
0.999256
0.999221
0.999186
0.999149
0.999111
0.999071
0.999031
0.998989
0.998946
0.998901
0.998856
0.99881
0.998764
0.999942
0.999858
0.999788
0.999726
0.999677
0.99964
0.999609
0.999583
0.999558
0.999535
0.999511
0.999488
0.999463
0.999436
0.999408
0.999379
0.999348
0.999317
0.999284
0.99925
0.999215
0.999179
0.999141
0.999102
0.999061
0.999019
0.998977
0.998933
0.998889
0.998843
0.998796
0.998749
0.998701
0.994366
0.994118
0.993909
0.993701
0.993481
0.993239
0.992989
0.992735
0.99247
0.9922
0.991913
0.991606
0.991332
0.990996
0.99073
0.990287
0.9903
0.989223
0.990769
0.985532
0.990818
0.973283
0.949645
0.869039
0.466795
0.0610235
0.999945
0.999868
0.999797
0.999737
0.999692
0.999657
0.999628
0.999602
0.999578
0.999555
0.999533
0.99951
0.999485
0.99946
0.999433
0.999405
0.999376
0.999345
0.999313
0.99928
0.999245
0.999209
0.999172
0.999133
0.999093
0.999052
0.999009
0.998966
0.998922
0.998877
0.998831
0.998783
0.998733
0.998684
0.994598
0.994385
0.994205
0.994019
0.993818
0.993605
0.993377
0.993141
0.992901
0.992653
0.992394
0.992127
0.99185
0.991595
0.991274
0.991047
0.990663
0.990673
0.989747
0.991125
0.986549
0.99144
0.975933
0.954519
0.881531
0.48477
0.0640412
0.99995
0.999867
0.999802
0.999749
0.999708
0.999675
0.999646
0.99962
0.999597
0.999575
0.999553
0.999531
0.999507
0.999483
0.999457
0.99943
0.999402
0.999372
0.999341
0.999309
0.999275
0.999239
0.999202
0.999164
0.999124
0.999083
0.999041
0.998999
0.998955
0.998911
0.998865
0.998818
0.998769
0.998718
0.998666
0.998613
0.994798
0.994625
0.994463
0.994302
0.99412
0.993923
0.993719
0.993499
0.993278
0.993059
0.992823
0.992582
0.992333
0.992084
0.991847
0.991558
0.991354
0.991024
0.991045
0.990252
0.991469
0.987577
0.991983
0.978436
0.959318
0.894094
0.502883
0.0672225
0.999953
0.999882
0.999819
0.999766
0.999725
0.999691
0.999662
0.999637
0.999615
0.999594
0.999573
0.999551
0.999529
0.999505
0.999481
0.999455
0.999428
0.999399
0.999369
0.999337
0.999303
0.999268
0.999232
0.999194
0.999155
0.999115
0.999073
0.999031
0.998988
0.998944
0.998899
0.998852
0.998804
0.998753
0.998701
0.998647
0.998593
0.995854
0.995678
0.995518
0.995375
0.995239
0.995106
0.994971
0.994834
0.994693
0.994543
0.994384
0.994204
0.994022
0.993828
0.993626
0.993428
0.993221
0.993006
0.992778
0.992558
0.992319
0.992091
0.991843
0.991685
0.991401
0.991433
0.990754
0.991818
0.988612
0.992451
0.980872
0.963925
0.906201
0.522292
0.0708893
0.999956
0.99989
0.999828
0.999777
0.999738
0.999705
0.999677
0.999653
0.999632
0.999612
0.999592
0.999571
0.999549
0.999527
0.999504
0.999479
0.999453
0.999425
0.999395
0.999364
0.999331
0.999297
0.999261
0.999224
0.999185
0.999146
0.999105
0.999064
0.999021
0.998978
0.998933
0.998886
0.998838
0.998789
0.998737
0.998684
0.998628
0.998571
0.998513
0.99602
0.99586
0.995707
0.995562
0.995421
0.995282
0.995145
0.995008
0.994869
0.994724
0.994576
0.994422
0.994257
0.9941
0.99392
0.993735
0.993553
0.99336
0.993174
0.992969
0.992769
0.992551
0.992348
0.992126
0.99201
0.991758
0.991799
0.991239
0.992162
0.989508
0.992829
0.983167
0.96829
0.918715
0.541847
0.0750537
0.99996
0.999888
0.999832
0.999787
0.99975
0.999719
0.999692
0.99967
0.99965
0.99963
0.99961
0.99959
0.999569
0.999548
0.999526
0.999502
0.999477
0.99945
0.999421
0.999391
0.999359
0.999325
0.99929
0.999253
0.999216
0.999177
0.999137
0.999096
0.999054
0.999011
0.998967
0.998921
0.998874
0.998824
0.998773
0.99872
0.998665
0.998608
0.998548
0.998488
0.998425
0.996867
0.996748
0.996621
0.996484
0.996341
0.996194
0.996042
0.995892
0.995743
0.995598
0.995455
0.995313
0.995172
0.995028
0.99488
0.994728
0.994577
0.994423
0.994273
0.994125
0.993962
0.993816
0.993655
0.993491
0.993322
0.993138
0.992961
0.992767
0.9926
0.992424
0.992343
0.992137
0.992166
0.991695
0.9925
0.990387
0.993089
0.985352
0.97249
0.930306
0.562194
0.07981
0.999963
0.999897
0.999844
0.9998
0.999763
0.999733
0.999708
0.999687
0.999667
0.999647
0.999628
0.999608
0.999589
0.999569
0.999548
0.999525
0.999501
0.999475
0.999447
0.999417
0.999386
0.999353
0.999318
0.999282
0.999246
0.999208
0.999169
0.999129
0.999087
0.999045
0.999001
0.998956
0.998909
0.99886
0.99881
0.998757
0.998703
0.998647
0.998588
0.998526
0.998462
0.998398
0.99833
0.998258
0.998185
0.996903
0.996782
0.996653
0.996517
0.996375
0.996228
0.996078
0.995927
0.995777
0.99563
0.995484
0.995338
0.995191
0.995042
0.99489
0.994733
0.994578
0.994419
0.994263
0.994111
0.993973
0.993848
0.993702
0.993574
0.993442
0.993288
0.993127
0.992965
0.992835
0.992727
0.992654
0.992471
0.992509
0.992119
0.99285
0.991221
0.993221
0.987538
0.976364
0.941623
0.583199
0.0849549
0.999965
0.999904
0.999853
0.999812
0.999777
0.999748
0.999724
0.999702
0.999682
0.999663
0.999644
0.999626
0.999608
0.999589
0.999569
0.999547
0.999524
0.999499
0.999471
0.999442
0.999412
0.99938
0.999346
0.999311
0.999276
0.999238
0.9992
0.999161
0.99912
0.999078
0.999035
0.99899
0.998944
0.998896
0.998846
0.998795
0.998741
0.998685
0.998627
0.998567
0.998504
0.998438
0.99837
0.998299
0.998225
0.998149
0.998071
0.996943
0.996821
0.99669
0.996553
0.99641
0.996262
0.996111
0.995961
0.995811
0.995662
0.995513
0.995363
0.995211
0.995054
0.994896
0.994738
0.994576
0.994414
0.99426
0.994106
0.993959
0.993825
0.993712
0.993613
0.993504
0.993376
0.993264
0.993163
0.993084
0.992994
0.992929
0.992772
0.992827
0.992545
0.993199
0.992019
0.993479
0.98966
0.979619
0.952649
0.603527
0.0903743
0.999968
0.99991
0.999862
0.999823
0.99979
0.999762
0.999738
0.999717
0.999697
0.999679
0.999661
0.999644
0.999627
0.999609
0.99959
0.999569
0.999546
0.999522
0.999495
0.999467
0.999437
0.999406
0.999374
0.99934
0.999305
0.999269
0.999232
0.999193
0.999153
0.999112
0.999069
0.999025
0.99898
0.998932
0.998883
0.998832
0.998779
0.998724
0.998667
0.998607
0.998545
0.99848
0.998413
0.998342
0.998269
0.998193
0.998113
0.998031
0.997946
0.997856
0.997763
0.997666
0.997565
0.997459
0.99735
0.997237
0.997118
0.996995
0.996866
0.996732
0.996592
0.996447
0.996298
0.996147
0.995995
0.995844
0.995693
0.995539
0.995384
0.995225
0.995066
0.994906
0.994743
0.994578
0.994414
0.994252
0.994096
0.993955
0.99382
0.993691
0.993582
0.99351
0.99342
0.993369
0.993322
0.993292
0.993227
0.993168
0.993069
0.993123
0.992947
0.993547
0.992737
0.993898
0.991606
0.982333
0.961749
0.62448
0.0965323
0.99997
0.999916
0.999871
0.999833
0.999802
0.999775
0.999752
0.999731
0.999712
0.999695
0.999678
0.999662
0.999646
0.999628
0.99961
0.999589
0.999567
0.999544
0.999518
0.999491
0.999463
0.999433
0.999402
0.999369
0.999335
0.9993
0.999263
0.999226
0.999186
0.999146
0.999104
0.99906
0.999015
0.998969
0.99892
0.99887
0.998818
0.998764
0.998707
0.998648
0.998587
0.998523
0.998456
0.998386
0.998314
0.998238
0.998159
0.998077
0.997991
0.997901
0.997808
0.997711
0.99761
0.997505
0.997396
0.997281
0.997162
0.997038
0.996909
0.996775
0.996633
0.996487
0.996338
0.996186
0.996034
0.995881
0.995727
0.99557
0.995411
0.99525
0.995088
0.99492
0.99475
0.99458
0.994415
0.994255
0.9941
0.993949
0.993805
0.993682
0.993575
0.993482
0.993434
0.993421
0.993421
0.993411
0.993383
0.993352
0.993309
0.993403
0.993317
0.993903
0.993367
0.994503
0.99337
0.983975
0.970091
0.643798
0.102931
0.999972
0.999922
0.999879
0.999844
0.999814
0.999788
0.999766
0.999746
0.999727
0.999711
0.999695
0.99968
0.999664
0.999647
0.999629
0.999609
0.999588
0.999565
0.999541
0.999515
0.999488
0.999459
0.999429
0.999398
0.999365
0.99933
0.999295
0.999258
0.999219
0.999179
0.999138
0.999095
0.999051
0.999005
0.998957
0.998908
0.998857
0.998803
0.998747
0.998689
0.998629
0.998566
0.9985
0.998431
0.998359
0.998284
0.998206
0.998124
0.998039
0.99795
0.997858
0.997761
0.99766
0.997554
0.997444
0.99733
0.99721
0.997086
0.996956
0.99682
0.996677
0.996531
0.996382
0.99623
0.996077
0.995922
0.995764
0.995603
0.995441
0.995274
0.995104
0.994932
0.994759
0.99459
0.994423
0.994258
0.994099
0.993947
0.993802
0.993674
0.99356
0.993468
0.993411
0.993392
0.993434
0.993469
0.993483
0.993517
0.99356
0.993726
0.993712
0.994279
0.993897
0.995261
0.994596
0.984664
0.975687
0.66253
0.110437
0.999974
0.999927
0.999887
0.999854
0.999826
0.999801
0.999779
0.99976
0.999743
0.999726
0.999711
0.999696
0.999681
0.999664
0.999647
0.999628
0.999608
0.999586
0.999563
0.999539
0.999513
0.999485
0.999456
0.999426
0.999394
0.99936
0.999326
0.999289
0.999252
0.999213
0.999172
0.99913
0.999087
0.999041
0.998995
0.998946
0.998895
0.998843
0.998788
0.998731
0.998672
0.998609
0.998545
0.998477
0.998406
0.998332
0.998254
0.998174
0.998089
0.998001
0.997908
0.997812
0.997711
0.997606
0.997496
0.997382
0.997262
0.997137
0.997006
0.996869
0.996727
0.99658
0.996431
0.996277
0.996123
0.995965
0.995804
0.99564
0.995473
0.995303
0.995131
0.994957
0.994783
0.994611
0.994439
0.99427
0.994104
0.993951
0.993805
0.993673
0.993561
0.993476
0.993424
0.993403
0.993406
0.99348
0.99357
0.993684
0.993777
0.993962
0.994009
0.994631
0.99438
0.995979
0.995537
0.983797
0.978835
0.678996
0.119053
0.999976
0.999932
0.999896
0.999864
0.999837
0.999814
0.999793
0.999774
0.999757
0.999742
0.999727
0.999712
0.999697
0.999681
0.999665
0.999647
0.999628
0.999607
0.999585
0.999562
0.999537
0.999511
0.999483
0.999453
0.999423
0.99939
0.999356
0.999321
0.999284
0.999246
0.999206
0.999165
0.999122
0.999078
0.999032
0.998984
0.998935
0.998883
0.998829
0.998773
0.998715
0.998654
0.99859
0.998523
0.998453
0.99838
0.998304
0.998224
0.99814
0.998053
0.997962
0.997866
0.997766
0.997661
0.997552
0.997438
0.997318
0.997192
0.997061
0.996924
0.996782
0.996636
0.996485
0.996332
0.996176
0.996017
0.995854
0.995688
0.995518
0.995344
0.995168
0.99499
0.994812
0.994634
0.994459
0.994291
0.994125
0.993963
0.993812
0.993679
0.993561
0.993469
0.993413
0.993393
0.993403
0.993451
0.993577
0.99376
0.993933
0.994181
0.994325
0.994953
0.994717
0.996785
0.995868
0.981762
0.978835
0.692438
0.129822
0.999977
0.999937
0.999904
0.999874
0.999848
0.999826
0.999805
0.999787
0.999771
0.999756
0.999742
0.999727
0.999713
0.999698
0.999682
0.999665
0.999647
0.999628
0.999607
0.999585
0.999561
0.999536
0.999509
0.999481
0.999451
0.999419
0.999386
0.999352
0.999316
0.999278
0.99924
0.999199
0.999158
0.999114
0.999069
0.999023
0.998974
0.998924
0.998871
0.998816
0.998759
0.998699
0.998636
0.998571
0.998502
0.99843
0.998355
0.998276
0.998194
0.998108
0.998017
0.997922
0.997823
0.99772
0.997611
0.997497
0.997377
0.997253
0.997122
0.996986
0.996844
0.996697
0.996548
0.996394
0.996237
0.996075
0.99591
0.99574
0.995565
0.995389
0.995211
0.995032
0.994852
0.994675
0.994498
0.994319
0.994144
0.993982
0.993833
0.993696
0.993585
0.993502
0.993442
0.993406
0.993407
0.993478
0.993604
0.993811
0.994044
0.994349
0.994581
0.995255
0.995085
0.997418
0.995791
0.979078
0.974682
0.703621
0.144215
0.999979
0.999942
0.999911
0.999883
0.999858
0.999837
0.999817
0.9998
0.999785
0.99977
0.999756
0.999742
0.999729
0.999715
0.9997
0.999684
0.999667
0.999649
0.999629
0.999608
0.999585
0.99956
0.999535
0.999507
0.999478
0.999448
0.999416
0.999382
0.999347
0.999311
0.999273
0.999234
0.999193
0.999151
0.999107
0.999061
0.999014
0.998964
0.998913
0.998859
0.998803
0.998744
0.998683
0.998619
0.998552
0.998482
0.998408
0.998331
0.99825
0.998165
0.998076
0.997983
0.997885
0.997782
0.997674
0.997561
0.997443
0.997319
0.997189
0.997053
0.996912
0.996767
0.996618
0.996464
0.996305
0.996142
0.995974
0.995803
0.995628
0.995453
0.995274
0.995093
0.994913
0.994727
0.994539
0.99436
0.994189
0.994024
0.993871
0.993741
0.993629
0.993543
0.993462
0.993415
0.993416
0.99348
0.993613
0.993825
0.994132
0.994505
0.994808
0.995439
0.99538
0.997817
0.99548
0.97708
0.969824
0.716289
0.162613
0.999981
0.999946
0.999916
0.999891
0.999868
0.999847
0.999829
0.999813
0.999798
0.999784
0.999771
0.999758
0.999745
0.999732
0.999718
0.999703
0.999686
0.999669
0.99965
0.99963
0.999608
0.999584
0.999559
0.999533
0.999505
0.999476
0.999445
0.999412
0.999379
0.999343
0.999307
0.999269
0.999229
0.999188
0.999145
0.9991
0.999054
0.999006
0.998956
0.998903
0.998849
0.998792
0.998732
0.998669
0.998604
0.998535
0.998463
0.998388
0.998309
0.998226
0.998138
0.998047
0.99795
0.997849
0.997743
0.997632
0.997516
0.997394
0.997265
0.997131
0.996992
0.996847
0.996697
0.996543
0.996385
0.996223
0.996056
0.995885
0.995711
0.995533
0.995351
0.995165
0.994977
0.994789
0.994608
0.99443
0.994256
0.994094
0.99394
0.993805
0.99368
0.993564
0.993486
0.993461
0.993477
0.99355
0.993677
0.993874
0.994139
0.994529
0.994974
0.995677
0.995781
0.998007
0.995153
0.978299
0.965366
0.74586
0.18416
0.999983
0.999951
0.999924
0.999899
0.999878
0.999859
0.999841
0.999826
0.999812
0.999798
0.999786
0.999774
0.999762
0.999749
0.999736
0.999721
0.999705
0.999689
0.99967
0.999651
0.99963
0.999607
0.999584
0.999558
0.999531
0.999503
0.999474
0.999442
0.99941
0.999376
0.99934
0.999303
0.999265
0.999225
0.999183
0.99914
0.999095
0.999048
0.998999
0.998949
0.998896
0.99884
0.998782
0.998721
0.998658
0.998591
0.998521
0.998448
0.998371
0.99829
0.998205
0.998116
0.998022
0.997923
0.99782
0.997711
0.997597
0.997476
0.99735
0.997218
0.997081
0.996938
0.99679
0.996639
0.996482
0.99632
0.996154
0.995984
0.995809
0.995628
0.995446
0.99526
0.995072
0.994888
0.994705
0.994523
0.994351
0.994185
0.994029
0.993879
0.993745
0.993641
0.993568
0.993528
0.993543
0.993619
0.993762
0.993984
0.9943
0.994677
0.995095
0.99579
0.996092
0.998222
0.995401
0.983924
0.965816
0.812133
0.20728
0.999984
0.999956
0.999931
0.999908
0.999888
0.99987
0.999854
0.999839
0.999826
0.999814
0.999802
0.999791
0.999779
0.999766
0.999753
0.999739
0.999723
0.999707
0.99969
0.999671
0.999651
0.99963
0.999607
0.999583
0.999558
0.999531
0.999502
0.999472
0.999441
0.999408
0.999374
0.999339
0.999301
0.999263
0.999222
0.999181
0.999137
0.999092
0.999045
0.998995
0.998944
0.998891
0.998835
0.998776
0.998715
0.99865
0.998583
0.998512
0.998438
0.99836
0.998277
0.998191
0.9981
0.998005
0.997904
0.997798
0.997687
0.997569
0.997446
0.997317
0.997182
0.997043
0.996899
0.996749
0.996594
0.996434
0.996269
0.996098
0.995924
0.995746
0.995563
0.995381
0.9952
0.995015
0.994832
0.994652
0.994473
0.994299
0.994132
0.993978
0.993851
0.993747
0.993677
0.993664
0.993682
0.993743
0.993856
0.994031
0.994289
0.994658
0.995172
0.99593
0.996484
0.998156
0.996316
0.991918
0.971705
0.91956
0.233893
0.999986
0.99996
0.999938
0.999918
0.999899
0.999882
0.999868
0.999854
0.999842
0.99983
0.999818
0.999807
0.999794
0.999782
0.999769
0.999755
0.99974
0.999725
0.999708
0.999691
0.999672
0.999652
0.99963
0.999607
0.999583
0.999558
0.999531
0.999502
0.999472
0.999441
0.999408
0.999374
0.999338
0.999301
0.999262
0.999222
0.99918
0.999136
0.999091
0.999043
0.998994
0.998943
0.998889
0.998833
0.998774
0.998712
0.998648
0.99858
0.998509
0.998434
0.998355
0.998272
0.998185
0.998092
0.997995
0.997893
0.997786
0.997672
0.997553
0.997428
0.997297
0.997161
0.99702
0.996874
0.996723
0.996567
0.996405
0.99624
0.996069
0.995896
0.995721
0.995541
0.995359
0.995177
0.994991
0.994806
0.994626
0.994455
0.994299
0.99416
0.994033
0.99394
0.993873
0.993827
0.993829
0.993894
0.99403
0.994232
0.994516
0.994954
0.995511
0.996192
0.996755
0.997993
0.997798
0.998209
0.981436
1.01497
0.27733
0.999988
0.999964
0.999955
0.999932
0.999912
0.999897
0.999882
0.999869
0.999857
0.999845
0.999833
0.999821
0.999808
0.999796
0.999783
0.99977
0.999756
0.999741
0.999726
0.999709
0.999691
0.999672
0.999652
0.999631
0.999608
0.999584
0.999558
0.999531
0.999502
0.999472
0.99944
0.999407
0.999373
0.999337
0.9993
0.999261
0.999221
0.999179
0.999135
0.99909
0.999042
0.998993
0.998942
0.998888
0.998832
0.998773
0.998712
0.998647
0.998579
0.998507
0.998432
0.998353
0.998269
0.998182
0.998089
0.997991
0.997888
0.99778
0.997665
0.997545
0.99742
0.99729
0.997155
0.997014
0.996868
0.996717
0.996561
0.996401
0.996235
0.996065
0.99589
0.995711
0.995528
0.995344
0.995167
0.994991
0.99482
0.994658
0.9945
0.994355
0.994237
0.994129
0.994057
0.994026
0.994031
0.99409
0.994213
0.994427
0.994753
0.995133
0.99558
0.996186
0.99687
0.997922
0.997981
1.00094
0.986269
1.05116
0.341626
0.999989
0.999969
0.99995
0.999934
0.999919
0.999906
0.999894
0.999881
0.999868
0.999856
0.999844
0.999832
0.99982
0.999808
0.999796
0.999783
0.99977
0.999756
0.999741
0.999725
0.999708
0.999691
0.999671
0.999651
0.999629
0.999605
0.99958
0.999554
0.999526
0.999497
0.999466
0.999434
0.999401
0.999366
0.999329
0.999291
0.999252
0.999211
0.999169
0.999125
0.999079
0.999032
0.998982
0.99893
0.998876
0.99882
0.998761
0.998699
0.998634
0.998565
0.998493
0.998417
0.998337
0.998253
0.998164
0.998071
0.997972
0.997868
0.997759
0.997644
0.997525
0.997399
0.997269
0.997134
0.996994
0.996849
0.996698
0.996542
0.996382
0.996218
0.996051
0.995882
0.995712
0.995542
0.995372
0.995201
0.99504
0.99488
0.994731
0.994596
0.994473
0.994381
0.994302
0.994262
0.994276
0.99434
0.994455
0.994665
0.994982
0.995393
0.995927
0.996516
0.997206
0.99812
0.998547
1.00077
0.986608
1.0358
0.445311
0.99999
0.999972
0.999959
0.999946
0.999931
0.999917
0.999904
0.999891
0.999879
0.999866
0.999854
0.999843
0.999831
0.999819
0.999807
0.999794
0.999781
0.999767
0.999752
0.999737
0.99972
0.999702
0.999683
0.999662
0.99964
0.999616
0.999591
0.999564
0.999536
0.999507
0.999475
0.999443
0.999409
0.999373
0.999337
0.999298
0.999259
0.999217
0.999175
0.99913
0.999085
0.999037
0.998987
0.998935
0.998881
0.998825
0.998766
0.998705
0.99864
0.998572
0.998501
0.998427
0.998348
0.998266
0.998179
0.998087
0.997991
0.99789
0.997783
0.997672
0.997555
0.997434
0.997309
0.997178
0.997043
0.996903
0.99676
0.996612
0.996462
0.996308
0.996152
0.995994
0.995837
0.995677
0.995518
0.995362
0.995201
0.995049
0.994906
0.994774
0.994658
0.994557
0.994503
0.994482
0.994503
0.994593
0.994781
0.995026
0.995318
0.995728
0.996207
0.996743
0.997367
0.998193
0.998664
0.999842
0.991741
1.01779
0.594879
0.999992
0.999977
0.999963
0.99995
0.999937
0.999925
0.999913
0.999901
0.999889
0.999877
0.999865
0.999853
0.999841
0.999829
0.999816
0.999802
0.999788
0.999773
0.999757
0.99974
0.999722
0.999702
0.999681
0.999659
0.999635
0.999609
0.999582
0.999553
0.999523
0.999491
0.999457
0.999422
0.999386
0.999348
0.999308
0.999267
0.999224
0.99918
0.999134
0.999086
0.999037
0.998986
0.998933
0.998878
0.99882
0.998761
0.998698
0.998633
0.998565
0.998494
0.998419
0.998341
0.998259
0.998174
0.998083
0.997989
0.99789
0.997786
0.997678
0.997565
0.997447
0.997326
0.9972
0.99707
0.996936
0.996799
0.996658
0.996514
0.996367
0.996218
0.996069
0.995918
0.995766
0.995613
0.99546
0.995309
0.995164
0.995026
0.994899
0.994788
0.994697
0.994636
0.994611
0.994631
0.994708
0.99484
0.995026
0.995268
0.995604
0.99597
0.996415
0.997053
0.997681
0.998445
0.999015
0.999571
0.994194
1.00697
0.6823
0.999993
0.999981
0.999971
0.999961
0.999949
0.999938
0.999926
0.999914
0.999902
0.99989
0.999878
0.999865
0.999851
0.999837
0.999823
0.999808
0.999792
0.999775
0.999757
0.999738
0.999717
0.999695
0.999672
0.999647
0.99962
0.999592
0.999562
0.99953
0.999497
0.999462
0.999425
0.999387
0.999347
0.999306
0.999263
0.999218
0.999172
0.999124
0.999074
0.999023
0.99897
0.998915
0.998858
0.998798
0.998736
0.998672
0.998605
0.998536
0.998463
0.998387
0.998307
0.998224
0.998138
0.998047
0.997951
0.997852
0.997747
0.997638
0.997524
0.997406
0.997284
0.997157
0.997026
0.996891
0.996752
0.99661
0.996464
0.996314
0.996161
0.996008
0.995853
0.995697
0.995539
0.995385
0.995238
0.995093
0.994961
0.994842
0.994735
0.994654
0.994601
0.994587
0.994599
0.994669
0.994779
0.994941
0.995141
0.99541
0.995751
0.996215
0.996756
0.997332
0.997953
0.998501
0.998919
0.999103
0.99595
0.999053
0.485487
0.999995
0.999985
0.999976
0.999967
0.999957
0.999947
0.999936
0.999925
0.999913
0.999901
0.999889
0.999875
0.999861
0.999846
0.999831
0.999814
0.999797
0.999778
0.999759
0.999738
0.999715
0.999691
0.999666
0.999639
0.999611
0.999581
0.999549
0.999515
0.99948
0.999444
0.999405
0.999366
0.999324
0.999281
0.999237
0.999191
0.999144
0.999095
0.999044
0.998992
0.998937
0.998881
0.998823
0.998763
0.9987
0.998635
0.998568
0.998497
0.998424
0.998347
0.998267
0.998184
0.998097
0.998005
0.99791
0.99781
0.997707
0.997598
0.997485
0.997367
0.997245
0.99712
0.996991
0.996859
0.996722
0.996582
0.99644
0.996295
0.996147
0.995996
0.995845
0.995692
0.995544
0.995397
0.995255
0.995125
0.995002
0.994893
0.994805
0.994731
0.994684
0.994658
0.994687
0.994754
0.994857
0.995023
0.995257
0.995584
0.995989
0.996422
0.996909
0.997465
0.997962
0.998657
0.999134
0.998972
0.99881
0.990513
0.39308
0.999997
0.99999
0.999982
0.999974
0.999966
0.999956
0.999947
0.999936
0.999925
0.999913
0.9999
0.999886
0.999872
0.999856
0.99984
0.999822
0.999804
0.999784
0.999763
0.99974
0.999717
0.999692
0.999665
0.999637
0.999607
0.999576
0.999543
0.999508
0.999472
0.999435
0.999396
0.999356
0.999314
0.999271
0.999227
0.999181
0.999134
0.999085
0.999035
0.998983
0.998929
0.998874
0.998817
0.998757
0.998696
0.998632
0.998566
0.998497
0.998426
0.998351
0.998273
0.998192
0.998107
0.998019
0.997927
0.99783
0.997729
0.997623
0.997514
0.997401
0.997285
0.997165
0.997041
0.996913
0.996783
0.996649
0.996512
0.996373
0.996233
0.996093
0.995951
0.995808
0.995666
0.995525
0.995391
0.995261
0.995143
0.995037
0.994948
0.994882
0.994839
0.994829
0.994849
0.994904
0.995017
0.995173
0.995412
0.995719
0.996113
0.996602
0.997113
0.997728
0.998301
0.999089
0.999416
0.999314
1.00011
0.987395
0.340198
0.999998
0.999994
0.999989
0.999983
0.999975
0.999967
0.999958
0.999948
0.999936
0.999924
0.999912
0.999898
0.999883
0.999867
0.999849
0.999831
0.999811
0.99979
0.999768
0.999745
0.99972
0.999693
0.999665
0.999636
0.999605
0.999573
0.999539
0.999504
0.999467
0.99943
0.99939
0.99935
0.999308
0.999265
0.999221
0.999175
0.999129
0.999081
0.999031
0.99898
0.998928
0.998873
0.998817
0.99876
0.9987
0.998638
0.998573
0.998506
0.998437
0.998364
0.998288
0.998209
0.998127
0.998042
0.997952
0.997859
0.997763
0.997662
0.997557
0.997448
0.997336
0.99722
0.997102
0.99698
0.996856
0.996728
0.996596
0.996461
0.996324
0.996186
0.99605
0.995914
0.995779
0.99565
0.995523
0.995403
0.99529
0.995185
0.995096
0.995025
0.994982
0.994969
0.994987
0.995051
0.99516
0.995343
0.99558
0.995867
0.996264
0.996743
0.997274
0.997851
0.998429
0.999003
0.999173
0.998775
0.997237
0.986666
0.305057
1
0.999999
0.999997
0.999992
0.999986
0.999978
0.999969
0.99996
0.999949
0.999937
0.999923
0.999909
0.999894
0.999877
0.999859
0.99984
0.999819
0.999797
0.999774
0.999749
0.999723
0.999695
0.999666
0.999635
0.999603
0.99957
0.999536
0.9995
0.999462
0.999424
0.999384
0.999344
0.999302
0.999259
0.999215
0.999169
0.999123
0.999075
0.999026
0.998976
0.998924
0.998871
0.998816
0.998759
0.9987
0.998639
0.998576
0.99851
0.998442
0.998372
0.998298
0.998221
0.998141
0.998057
0.997969
0.997878
0.997783
0.997684
0.997583
0.997478
0.997369
0.997258
0.997143
0.997026
0.996905
0.996783
0.996658
0.996531
0.9964
0.996267
0.996131
0.995995
0.995863
0.995733
0.995608
0.99549
0.995383
0.995295
0.995209
0.995138
0.995084
0.995061
0.99507
0.995129
0.995238
0.995407
0.995641
0.995968
0.996334
0.996761
0.997374
0.99799
0.998576
0.999309
0.999469
0.998836
0.996144
0.987188
0.279239
0.999999
0.999997
0.999997
0.999997
0.999994
0.999989
0.999981
0.999972
0.999961
0.999949
0.999936
0.999921
0.999905
0.999888
0.999869
0.999849
0.999827
0.999804
0.99978
0.999754
0.999726
0.999697
0.999667
0.999635
0.999602
0.999567
0.999532
0.999495
0.999457
0.999418
0.999378
0.999336
0.999294
0.999251
0.999207
0.999161
0.999115
0.999068
0.999019
0.998969
0.998917
0.998864
0.99881
0.998753
0.998695
0.998635
0.998573
0.998508
0.99844
0.99837
0.998297
0.998222
0.998143
0.99806
0.997975
0.997885
0.997792
0.997693
0.997592
0.997489
0.997383
0.997274
0.997161
0.997046
0.996928
0.996806
0.996682
0.996558
0.996431
0.996304
0.996176
0.996046
0.995915
0.995784
0.995659
0.995542
0.995429
0.995327
0.995247
0.995195
0.995162
0.995146
0.995155
0.995209
0.995292
0.995445
0.995672
0.995983
0.996407
0.996846
0.997284
0.997907
0.998468
0.999139
0.999088
0.998764
0.996124
0.986868
0.258489
0.999997
0.999992
0.99999
0.999992
0.999994
0.999994
0.99999
0.999982
0.999972
0.999961
0.999947
0.999932
0.999916
0.999898
0.999879
0.999858
0.999835
0.999811
0.999785
0.999758
0.999729
0.999699
0.999667
0.999634
0.9996
0.999564
0.999527
0.99949
0.999451
0.999411
0.99937
0.999328
0.999285
0.999242
0.999197
0.999152
0.999105
0.999058
0.999009
0.998959
0.998907
0.998855
0.9988
0.998744
0.998686
0.998626
0.998563
0.998499
0.998432
0.998362
0.998289
0.998214
0.998135
0.998054
0.997968
0.99788
0.997787
0.997691
0.997591
0.997487
0.997381
0.997273
0.997162
0.997048
0.996932
0.996813
0.996691
0.996566
0.996439
0.996312
0.996183
0.996055
0.995928
0.995802
0.995677
0.995557
0.995448
0.995349
0.99526
0.995188
0.995145
0.995138
0.995168
0.995225
0.995348
0.995506
0.99571
0.996008
0.996389
0.996917
0.99749
0.997965
0.998427
0.999136
0.998968
0.99849
0.996551
0.984744
0.240877
0.999995
0.999987
0.999983
0.999983
0.999986
0.99999
0.999992
0.999989
0.999982
0.999971
0.999958
0.999943
0.999927
0.999908
0.999888
0.999866
0.999843
0.999817
0.999791
0.999762
0.999732
0.9997
0.999667
0.999633
0.999597
0.999561
0.999523
0.999484
0.999444
0.999403
0.999362
0.999319
0.999276
0.999232
0.999187
0.999141
0.999094
0.999046
0.998997
0.998947
0.998895
0.998842
0.998787
0.998731
0.998672
0.998612
0.99855
0.998485
0.998417
0.998348
0.998275
0.998199
0.998121
0.998039
0.997954
0.997865
0.997773
0.997677
0.997578
0.997476
0.99737
0.997262
0.997151
0.997038
0.996921
0.996802
0.99668
0.996558
0.996432
0.996305
0.996178
0.996051
0.995924
0.9958
0.99568
0.995561
0.995448
0.995351
0.99527
0.995205
0.995163
0.995155
0.995183
0.995243
0.995345
0.995515
0.995751
0.996034
0.996343
0.996785
0.99731
0.997945
0.998377
0.998919
0.998856
0.998071
0.99758
0.982274
0.226314
0.999993
0.999982
0.999976
0.999973
0.999975
0.99998
0.999986
0.99999
0.999987
0.99998
0.999968
0.999954
0.999937
0.999918
0.999897
0.999874
0.99985
0.999824
0.999795
0.999766
0.999734
0.999701
0.999667
0.999632
0.999595
0.999557
0.999518
0.999478
0.999437
0.999395
0.999353
0.99931
0.999266
0.999221
0.999175
0.999129
0.999082
0.999033
0.998984
0.998933
0.998881
0.998827
0.998772
0.998715
0.998656
0.998596
0.998533
0.998467
0.9984
0.998329
0.998256
0.99818
0.998101
0.998019
0.997934
0.997845
0.997752
0.997656
0.997557
0.997454
0.99735
0.997242
0.997131
0.997018
0.996902
0.996783
0.996661
0.996537
0.996409
0.996282
0.996154
0.996027
0.995902
0.995779
0.995661
0.995546
0.995437
0.995335
0.995251
0.995187
0.995136
0.995117
0.995144
0.995232
0.995346
0.995527
0.99574
0.996049
0.996432
0.996864
0.997305
0.997904
0.998351
0.998933
0.99862
0.997485
0.998039
0.978189
0.213049
0.999991
0.999977
0.999967
0.999963
0.999963
0.999967
0.999975
0.999983
0.999987
0.999984
0.999976
0.999962
0.999946
0.999927
0.999905
0.999882
0.999857
0.999829
0.9998
0.999769
0.999736
0.999702
0.999667
0.99963
0.999592
0.999552
0.999512
0.999471
0.99943
0.999387
0.999344
0.9993
0.999255
0.99921
0.999163
0.999116
0.999068
0.999019
0.998969
0.998918
0.998865
0.998811
0.998755
0.998698
0.998638
0.998577
0.998513
0.998447
0.998379
0.998308
0.998234
0.998157
0.998078
0.997995
0.997909
0.997819
0.997726
0.997629
0.99753
0.997428
0.997322
0.997214
0.997104
0.99699
0.996873
0.996754
0.996634
0.996511
0.996385
0.996256
0.996125
0.995996
0.995869
0.995742
0.99562
0.995509
0.995406
0.995306
0.995222
0.995158
0.995124
0.995112
0.995123
0.995194
0.995321
0.995511
0.995761
0.99607
0.996397
0.996824
0.997294
0.997821
0.998279
0.998951
0.998674
0.9971
0.998046
0.973384
0.201454
0.999989
0.999971
0.999959
0.999952
0.999951
0.999954
0.999961
0.999972
0.999981
0.999985
0.99998
0.999969
0.999954
0.999935
0.999913
0.999889
0.999863
0.999834
0.999804
0.999772
0.999738
0.999702
0.999666
0.999627
0.999588
0.999548
0.999507
0.999464
0.999422
0.999378
0.999334
0.999289
0.999244
0.999198
0.999151
0.999103
0.999054
0.999005
0.998954
0.998902
0.998848
0.998793
0.998737
0.998678
0.998618
0.998556
0.998491
0.998424
0.998355
0.998283
0.998208
0.998131
0.998051
0.997967
0.997881
0.997791
0.997696
0.997599
0.997498
0.997394
0.99729
0.997182
0.997072
0.996958
0.99684
0.996721
0.996598
0.996475
0.996349
0.996221
0.996094
0.995962
0.995832
0.995709
0.995588
0.99547
0.995364
0.99527
0.995183
0.995123
0.995086
0.995086
0.995114
0.995169
0.995293
0.995486
0.995722
0.996046
0.996453
0.996925
0.997341
0.997829
0.998204
0.998759
0.998483
0.996298
0.997589
0.968161
0.191117
0.999987
0.999965
0.99995
0.999942
0.999938
0.99994
0.999947
0.999958
0.999971
0.99998
0.999981
0.999974
0.99996
0.999942
0.99992
0.999896
0.999868
0.999839
0.999807
0.999774
0.999739
0.999702
0.999664
0.999625
0.999584
0.999543
0.9995
0.999457
0.999413
0.999369
0.999324
0.999278
0.999232
0.999185
0.999137
0.999089
0.999039
0.998989
0.998937
0.998884
0.99883
0.998774
0.998716
0.998657
0.998596
0.998533
0.998467
0.998399
0.998329
0.998257
0.998181
0.998103
0.998021
0.997937
0.997849
0.997758
0.997664
0.997566
0.997464
0.99736
0.997253
0.997144
0.997034
0.996921
0.996805
0.996684
0.996561
0.996436
0.996308
0.99618
0.99605
0.99592
0.995791
0.995662
0.995541
0.995426
0.99532
0.995233
0.995156
0.995088
0.995043
0.995039
0.995079