/*--------------------------------*- C++ -*----------------------------------*\
  =========                 |
  \\      /  F ield         | OpenFOAM: The Open Source CFD Toolbox
   \\    /   O peration     | Website:  https://openfoam.org
    \\  /    A nd           | Version:  9
     \\/     M anipulation  |
\*---------------------------------------------------------------------------*/
FoamFile
{
    format      ascii;
    class       volScalarField;
    location    "750";
    object      k;
}
// * * * * * * * * * * * * * * * * * * * * * * * * * * * * * * * * * * * * * //

dimensions      [0 2 -2 0 0 0 0];

internalField   nonuniform List<scalar> 
13446
(
3.27892e-05
3.33018e-05
2.4356e-06
3.37872e-05
1.19704e-06
3.77244e-07
2.30559e-06
4.29837e-06
3.42549e-05
3.36486e-08
1.42773e-07
2.15417e-06
4.19002e-06
4.86171e-06
3.46906e-05
2.18724e-06
3.88855e-07
2.00037e-06
4.07008e-06
4.80555e-06
4.97256e-06
3.51073e-05
9.07481e-07
1.24576e-07
1.84889e-06
3.94364e-06
4.74167e-06
4.92398e-06
5.0833e-06
5.30967e-06
5.56208e-06
5.82393e-06
6.09575e-06
6.37945e-06
6.67595e-06
6.98591e-06
7.31003e-06
7.64902e-06
8.00366e-06
8.37467e-06
8.76277e-06
9.16882e-06
9.59359e-06
1.00379e-05
1.05026e-05
1.09885e-05
1.14967e-05
1.20279e-05
1.25832e-05
1.31636e-05
1.37701e-05
1.44015e-05
3.55004e-05
3.20462e-06
1.17333e-07
1.70094e-06
3.80934e-06
4.67261e-06
4.86958e-06
5.02262e-06
5.24355e-06
5.49266e-06
5.75126e-06
6.01956e-06
6.29954e-06
6.59215e-06
6.89801e-06
7.21784e-06
7.55232e-06
7.90223e-06
8.2683e-06
8.65126e-06
9.05186e-06
9.471e-06
9.90935e-06
1.03678e-05
1.08473e-05
1.13488e-05
1.18729e-05
1.24209e-05
1.29936e-05
1.35918e-05
1.42177e-05
1.48663e-05
1.55435e-05
7.88025e-05
8.11175e-05
8.35034e-05
8.59279e-05
8.83677e-05
9.08231e-05
9.32863e-05
9.57595e-05
9.82427e-05
0.000100709
0.000103151
0.000105564
0.000107973
0.000110449
0.000113053
0.000115801
0.000118701
0.000121741
0.00012497
0.000128331
0.000132036
0.000135739
0.000139995
0.000144707
0.000154459
0.000185959
3.58711e-05
1.74768e-06
1.88706e-07
1.55043e-06
3.66908e-06
4.59669e-06
4.81247e-06
4.95783e-06
5.17144e-06
5.41668e-06
5.67192e-06
5.93649e-06
6.21245e-06
6.50081e-06
6.80223e-06
7.11742e-06
7.44706e-06
7.79188e-06
8.15259e-06
8.52996e-06
8.92471e-06
9.3377e-06
9.76966e-06
1.02215e-05
1.0694e-05
1.11881e-05
1.17047e-05
1.22447e-05
1.28091e-05
1.33989e-05
1.40148e-05
1.46588e-05
1.53325e-05
1.60271e-05
7.56134e-05
7.79144e-05
8.02803e-05
8.26831e-05
8.51016e-05
8.75306e-05
8.99772e-05
9.24375e-05
9.49113e-05
9.73928e-05
9.98599e-05
0.000102304
0.000104721
0.000107135
0.000109614
0.000112214
0.000114967
0.000117888
0.00012096
0.000124245
0.000127684
0.000131528
0.000135387
0.000139908
0.000144761
0.00015407
0.00018669
3.62212e-05
4.7074e-07
1.14637e-07
1.41745e-06
3.52413e-06
4.51372e-06
4.75197e-06
4.89082e-06
5.09681e-06
5.33786e-06
5.58959e-06
5.85025e-06
6.12203e-06
6.40601e-06
6.70285e-06
7.01322e-06
7.3378e-06
7.67731e-06
8.03251e-06
8.40408e-06
8.7928e-06
9.19947e-06
9.62481e-06
1.00697e-05
1.0535e-05
1.10216e-05
1.15303e-05
1.20621e-05
1.26178e-05
1.31987e-05
1.38055e-05
1.44393e-05
1.51007e-05
1.57932e-05
1.65108e-05
1.72583e-05
7.24166e-05
7.47022e-05
7.70404e-05
7.94084e-05
8.17955e-05
8.42044e-05
8.66282e-05
8.90726e-05
9.15299e-05
9.39986e-05
9.64781e-05
9.89448e-05
0.000101393
0.000103813
0.000106227
0.000108704
0.000111306
0.000114062
0.000116998
0.000120105
0.000123449
0.000126973
0.00013096
0.000134989
0.00013983
0.000144895
0.00015387
0.000187494
3.65511e-05
2.40924e-06
3.09321e-07
1.27574e-06
3.37294e-06
4.42423e-06
4.6879e-06
4.82123e-06
5.01913e-06
5.2556e-06
5.50368e-06
5.76028e-06
6.02769e-06
6.30711e-06
6.59915e-06
6.90451e-06
7.22383e-06
7.55783e-06
7.90726e-06
8.2728e-06
8.65521e-06
9.05528e-06
9.47374e-06
9.91146e-06
1.03692e-05
1.08478e-05
1.13484e-05
1.18716e-05
1.24185e-05
1.299e-05
1.35871e-05
1.42107e-05
1.48621e-05
1.5542e-05
1.62522e-05
1.69948e-05
1.776e-05
5.64071e-05
5.84031e-05
6.04711e-05
6.25981e-05
6.47702e-05
6.69762e-05
6.92165e-05
7.149e-05
7.37991e-05
7.61304e-05
7.84868e-05
8.08635e-05
8.32652e-05
8.56851e-05
8.8122e-05
9.05714e-05
9.30373e-05
9.55112e-05
9.79796e-05
0.000100428
0.000102857
0.000105273
0.000107744
0.000110338
0.000113097
0.000116045
0.000119185
0.000122582
0.00012619
0.000130328
0.000134541
0.000139771
0.000145131
0.000153889
0.000188374
3.68616e-05
7.18351e-07
1.7436e-07
1.14174e-06
3.215e-06
4.32788e-06
4.62043e-06
4.74922e-06
4.93848e-06
5.17003e-06
5.41425e-06
5.66671e-06
5.92959e-06
6.20424e-06
6.4913e-06
6.79146e-06
7.10531e-06
7.43362e-06
7.77704e-06
8.13632e-06
8.51217e-06
8.90538e-06
9.31669e-06
9.74691e-06
1.01968e-05
1.06673e-05
1.11594e-05
1.16737e-05
1.22113e-05
1.27731e-05
1.33601e-05
1.39733e-05
1.46137e-05
1.52824e-05
1.59805e-05
1.67084e-05
1.74699e-05
1.82589e-05
1.90787e-05
5.35723e-05
5.553e-05
5.7554e-05
5.96316e-05
6.17486e-05
6.39024e-05
6.60902e-05
6.83145e-05
7.05697e-05
7.28584e-05
7.51737e-05
7.75196e-05
7.98853e-05
8.22733e-05
8.46845e-05
8.71179e-05
8.95626e-05
9.20252e-05
9.44901e-05
9.6957e-05
9.94069e-05
0.000101836
0.000104256
0.000106729
0.000109315
0.000112078
0.000115031
0.000118191
0.000121641
0.000125329
0.000129623
0.000134035
0.000139723
0.000145469
0.000154307
0.000189658
3.71517e-05
2.76908e-06
2.72196e-07
1.01276e-06
3.05263e-06
4.22439e-06
4.54904e-06
4.67479e-06
4.85503e-06
5.08123e-06
5.32144e-06
5.56959e-06
5.82776e-06
6.09745e-06
6.37934e-06
6.67409e-06
6.98228e-06
7.30468e-06
7.6419e-06
7.99469e-06
8.36373e-06
8.74985e-06
9.15372e-06
9.57618e-06
1.0018e-05
1.048e-05
1.09632e-05
1.14683e-05
1.19963e-05
1.2548e-05
1.31246e-05
1.37269e-05
1.4356e-05
1.50129e-05
1.56987e-05
1.64144e-05
1.71609e-05
1.794e-05
1.87539e-05
1.95963e-05
2.04708e-05
4.1985e-05
4.36527e-05
4.53484e-05
4.70981e-05
4.89108e-05
5.07817e-05
5.2703e-05
5.46757e-05
5.66916e-05
5.87445e-05
6.08374e-05
6.2972e-05
6.51423e-05
6.735e-05
6.95918e-05
7.1866e-05
7.41666e-05
7.64992e-05
7.88558e-05
8.12359e-05
8.36385e-05
8.60587e-05
8.84952e-05
9.09505e-05
9.3415e-05
9.58799e-05
9.83256e-05
0.000100755
0.000103176
0.000105649
0.000108225
0.00011098
0.00011394
0.000117122
0.000120617
0.00012438
0.000128841
0.000133464
0.000139684
0.000145927
0.000155224
0.000191062
3.74223e-05
9.23039e-07
1.48374e-07
8.80304e-07
2.88317e-06
4.11346e-06
4.47367e-06
4.59806e-06
4.76891e-06
4.98911e-06
5.22512e-06
5.46891e-06
5.72222e-06
5.98679e-06
6.26334e-06
6.55248e-06
6.85483e-06
7.17109e-06
7.50188e-06
7.84796e-06
8.20996e-06
8.5887e-06
8.98491e-06
9.39938e-06
9.83281e-06
1.02861e-05
1.07601e-05
1.12556e-05
1.17736e-05
1.2315e-05
1.28807e-05
1.34718e-05
1.40891e-05
1.47338e-05
1.54068e-05
1.61093e-05
1.68424e-05
1.7607e-05
1.84039e-05
1.92354e-05
2.01034e-05
2.10013e-05
2.1937e-05
2.2914e-05
2.39262e-05
4.12536e-05
4.28873e-05
4.45661e-05
4.6306e-05
4.81057e-05
4.99571e-05
5.18558e-05
5.38001e-05
5.5788e-05
5.78177e-05
5.98909e-05
6.20049e-05
6.41569e-05
6.63455e-05
6.85683e-05
7.0827e-05
7.31118e-05
7.54291e-05
7.77718e-05
8.01401e-05
8.25314e-05
8.4943e-05
8.73743e-05
8.98193e-05
9.22762e-05
9.47335e-05
9.71803e-05
9.96133e-05
0.000102038
0.000104501
0.000107069
0.000109815
0.000112775
0.000115974
0.000119511
0.000123353
0.000127974
0.000132801
0.00013966
0.000146515
0.000156827
0.000192317
3.76768e-05
2.82794e-06
3.16123e-07
7.56116e-07
2.71212e-06
3.99522e-06
4.39366e-06
4.5188e-06
4.68019e-06
4.89393e-06
5.12555e-06
5.36474e-06
5.61303e-06
5.87232e-06
6.14333e-06
6.42667e-06
6.72297e-06
7.03288e-06
7.35706e-06
7.69621e-06
8.05096e-06
8.4221e-06
8.81036e-06
9.2165e-06
9.64127e-06
1.00855e-05
1.055e-05
1.10356e-05
1.15434e-05
1.20741e-05
1.26285e-05
1.32079e-05
1.38131e-05
1.44452e-05
1.51051e-05
1.57939e-05
1.65127e-05
1.72625e-05
1.80445e-05
1.88599e-05
1.97092e-05
2.05949e-05
2.15176e-05
2.24776e-05
2.34773e-05
2.4511e-05
2.5581e-05
4.04654e-05
4.20742e-05
4.37443e-05
4.54729e-05
4.72535e-05
4.90816e-05
5.09555e-05
5.2876e-05
5.48414e-05
5.68496e-05
5.89013e-05
6.09928e-05
6.31233e-05
6.52927e-05
6.74976e-05
6.97364e-05
7.20066e-05
7.43069e-05
7.66328e-05
7.8989e-05
8.13681e-05
8.3768e-05
8.61874e-05
8.86239e-05
9.10754e-05
9.3526e-05
9.59671e-05
9.83988e-05
0.000100823
0.000103286
0.000105843
0.000108577
0.000111528
0.000114736
0.00011831
0.000122213
0.000127014
0.000132036
0.00013966
0.000147234
0.000159373
0.000193796
3.79112e-05
8.03308e-07
3.84695e-08
6.32722e-07
2.53405e-06
3.86929e-06
4.30912e-06
4.43723e-06
4.58897e-06
4.79558e-06
5.02253e-06
5.25703e-06
5.50026e-06
5.75411e-06
6.01942e-06
6.29678e-06
6.58684e-06
6.89019e-06
7.20751e-06
7.5395e-06
7.88676e-06
8.25006e-06
8.63012e-06
9.0277e-06
9.44352e-06
9.87841e-06
1.03332e-05
1.08086e-05
1.13057e-05
1.18252e-05
1.23681e-05
1.29355e-05
1.35282e-05
1.41471e-05
1.47934e-05
1.54681e-05
1.61723e-05
1.69068e-05
1.7673e-05
1.8472e-05
1.93047e-05
2.01723e-05
2.10759e-05
2.20167e-05
2.29955e-05
2.40141e-05
2.50752e-05
2.61712e-05
2.73092e-05
2.84929e-05
2.97234e-05
3.09993e-05
3.23212e-05
3.36892e-05
3.51044e-05
3.65668e-05
3.80781e-05
3.96378e-05
4.12495e-05
4.29109e-05
4.46191e-05
4.63735e-05
4.81754e-05
5.00234e-05
5.19188e-05
5.38588e-05
5.58427e-05
5.78706e-05
5.99393e-05
6.20485e-05
6.41947e-05
6.63776e-05
6.85958e-05
7.08477e-05
7.31298e-05
7.54424e-05
7.77819e-05
8.01449e-05
8.25316e-05
8.49396e-05
8.73654e-05
8.98051e-05
9.22493e-05
9.4685e-05
9.71141e-05
9.95343e-05
0.000101989
0.000104535
0.00010725
0.000110194
0.000113399
0.000117005
0.000120962
0.000125954
0.000131139
0.000139693
0.00014813
0.00016299
0.000194982
3.81271e-05
2.25962e-06
1.14983e-07
5.02158e-07
2.34625e-06
3.73373e-06
4.21995e-06
4.3535e-06
4.49543e-06
4.69438e-06
4.91632e-06
5.14607e-06
5.38399e-06
5.6322e-06
5.89162e-06
6.16283e-06
6.44644e-06
6.74306e-06
7.05333e-06
7.37793e-06
7.71747e-06
8.07268e-06
8.44429e-06
8.83305e-06
9.23967e-06
9.66495e-06
1.01096e-05
1.05746e-05
1.10607e-05
1.15688e-05
1.20998e-05
1.26547e-05
1.32344e-05
1.38398e-05
1.44721e-05
1.51322e-05
1.58212e-05
1.65401e-05
1.72899e-05
1.80718e-05
1.8887e-05
1.97364e-05
2.06212e-05
2.15426e-05
2.25016e-05
2.34995e-05
2.45364e-05
2.56152e-05
2.67363e-05
2.78996e-05
2.91067e-05
3.03581e-05
3.16548e-05
3.29973e-05
3.43872e-05
3.5824e-05
3.73095e-05
3.88434e-05
4.04247e-05
4.20539e-05
4.37319e-05
4.54576e-05
4.72322e-05
4.90541e-05
5.09222e-05
5.2835e-05
5.4793e-05
5.67944e-05
5.8838e-05
6.09225e-05
6.30447e-05
6.52053e-05
6.74033e-05
6.96353e-05
7.18969e-05
7.41898e-05
7.65109e-05
7.88602e-05
8.12337e-05
8.36258e-05
8.60388e-05
8.84657e-05
9.08969e-05
9.33283e-05
9.57526e-05
9.81709e-05
0.000100613
0.000103146
0.000105842
0.00010877
0.000111964
0.000115588
0.000119587
0.000124785
0.000130084
0.000139792
0.000149191
0.00016802
0.000196933
3.83299e-05
3.64457e-06
6.20917e-09
3.95167e-07
2.15673e-06
3.58906e-06
4.12504e-06
4.26718e-06
4.39957e-06
4.59021e-06
4.80678e-06
5.03161e-06
5.26415e-06
5.50662e-06
5.76001e-06
6.02491e-06
6.30187e-06
6.59155e-06
6.89456e-06
7.21155e-06
7.54318e-06
7.89013e-06
8.25304e-06
8.63269e-06
9.0298e-06
9.44515e-06
9.87947e-06
1.03336e-05
1.08085e-05
1.13048e-05
1.18236e-05
1.23656e-05
1.29319e-05
1.35235e-05
1.41413e-05
1.47864e-05
1.54597e-05
1.61622e-05
1.68952e-05
1.76596e-05
1.84566e-05
1.92873e-05
2.01527e-05
2.10538e-05
2.1992e-05
2.29683e-05
2.39838e-05
2.50392e-05
2.61358e-05
2.72742e-05
2.84562e-05
2.96825e-05
3.09537e-05
3.22704e-05
3.36332e-05
3.50431e-05
3.65004e-05
3.80058e-05
3.95591e-05
4.11605e-05
4.28107e-05
4.45083e-05
4.62538e-05
4.80471e-05
4.98856e-05
5.1771e-05
5.3701e-05
5.5675e-05
5.76912e-05
5.97503e-05
6.18487e-05
6.39843e-05
6.61591e-05
6.83664e-05
7.06067e-05
7.28788e-05
7.51798e-05
7.75082e-05
7.98664e-05
8.22425e-05
8.46415e-05
8.70557e-05
8.94736e-05
9.18943e-05
9.43082e-05
9.67199e-05
9.91533e-05
0.000101668
0.000104339
0.000107237
0.000110413
0.000114049
0.000118083
0.000123498
0.000128849
0.000139977
0.000150404
0.000174569
0.000200093
3.85109e-05
1.24477e-06
6.13669e-08
2.75155e-07
1.96397e-06
3.43677e-06
4.02431e-06
4.17809e-06
4.30162e-06
4.48331e-06
4.69418e-06
4.91384e-06
5.14093e-06
5.37747e-06
5.62463e-06
5.88303e-06
6.1532e-06
6.43578e-06
6.73133e-06
7.04049e-06
7.36394e-06
7.70237e-06
8.05635e-06
8.4267e-06
8.81406e-06
9.21918e-06
9.64286e-06
1.00859e-05
1.05491e-05
1.10333e-05
1.15394e-05
1.20684e-05
1.2621e-05
1.31982e-05
1.38011e-05
1.44306e-05
1.50878e-05
1.57736e-05
1.64892e-05
1.72356e-05
1.80139e-05
1.88251e-05
1.96704e-05
2.05507e-05
2.14675e-05
2.24215e-05
2.34141e-05
2.44457e-05
2.55183e-05
2.66322e-05
2.77886e-05
2.89886e-05
3.02329e-05
3.1522e-05
3.28569e-05
3.42384e-05
3.56668e-05
3.71429e-05
3.86668e-05
4.0238e-05
4.18577e-05
4.35252e-05
4.52398e-05
4.70035e-05
4.88114e-05
5.06673e-05
5.25672e-05
5.45127e-05
5.65009e-05
5.85298e-05
6.05995e-05
6.27085e-05
6.48564e-05
6.70375e-05
6.92549e-05
7.1504e-05
7.37845e-05
7.60902e-05
7.84268e-05
8.07856e-05
8.31669e-05
8.55629e-05
8.79662e-05
9.03732e-05
9.27782e-05
9.51776e-05
9.7598e-05
0.000100092
0.000102741
0.000105612
0.000108766
0.00011239
0.000116434
0.000122068
0.000127424
0.000140305
0.000151656
0.000182714
0.000205271
3.86774e-05
2.29834e-06
1.04572e-07
1.7202e-07
1.76976e-06
3.27477e-06
3.917e-06
4.08624e-06
4.20157e-06
4.37379e-06
4.57847e-06
4.79293e-06
5.01435e-06
5.24479e-06
5.48557e-06
5.73729e-06
6.00048e-06
6.27575e-06
6.56367e-06
6.86483e-06
7.17992e-06
7.50955e-06
7.85435e-06
8.21512e-06
8.59247e-06
8.98717e-06
9.3999e-06
9.83152e-06
1.02828e-05
1.07546e-05
1.12477e-05
1.17631e-05
1.23016e-05
1.28642e-05
1.34517e-05
1.40653e-05
1.47059e-05
1.53745e-05
1.60721e-05
1.67999e-05
1.75588e-05
1.83501e-05
1.91746e-05
2.00335e-05
2.0928e-05
2.18592e-05
2.28282e-05
2.38355e-05
2.48829e-05
2.59707e-05
2.71006e-05
2.82733e-05
2.94897e-05
3.07502e-05
3.20563e-05
3.34076e-05
3.48062e-05
3.62511e-05
3.77438e-05
3.92838e-05
4.08718e-05
4.25072e-05
4.41904e-05
4.59214e-05
4.76974e-05
4.95207e-05
5.13887e-05
5.33027e-05
5.52594e-05
5.72578e-05
5.92974e-05
6.13788e-05
6.34977e-05
6.56523e-05
6.78434e-05
7.00641e-05
7.23191e-05
7.46029e-05
7.69164e-05
7.92545e-05
8.16165e-05
8.39953e-05
8.63797e-05
8.87672e-05
9.11568e-05
9.35454e-05
9.59533e-05
9.84248e-05
0.000101043
0.000103881
0.000107003
0.000110605
0.000114652
0.000120465
0.000125804
0.000140775
0.000152712
0.000192207
0.000211759
3.88304e-05
3.35208e-06
2.91421e-07
7.62375e-08
1.568e-06
3.10113e-06
3.80247e-06
3.99159e-06
4.09968e-06
4.2617e-06
4.45962e-06
4.66878e-06
4.88444e-06
5.10867e-06
5.34291e-06
5.5878e-06
5.84382e-06
6.1116e-06
6.39167e-06
6.68462e-06
6.99114e-06
7.31179e-06
7.64721e-06
7.99816e-06
8.36519e-06
8.74916e-06
9.1507e-06
9.57061e-06
1.00096e-05
1.04687e-05
1.09485e-05
1.145e-05
1.19739e-05
1.25214e-05
1.30933e-05
1.36905e-05
1.4314e-05
1.49649e-05
1.56441e-05
1.63528e-05
1.70918e-05
1.78624e-05
1.86656e-05
1.95025e-05
2.0374e-05
2.12816e-05
2.2226e-05
2.32081e-05
2.42297e-05
2.52908e-05
2.63933e-05
2.75377e-05
2.87249e-05
2.99557e-05
3.12312e-05
3.25521e-05
3.3919e-05
3.5332e-05
3.6792e-05
3.82987e-05
3.98535e-05
4.1455e-05
4.31045e-05
4.48012e-05
4.6543e-05
4.83331e-05
5.01674e-05
5.20476e-05
5.39716e-05
5.59373e-05
5.79456e-05
5.99946e-05
6.20815e-05
6.4206e-05
6.63663e-05
6.85603e-05
7.07883e-05
7.30453e-05
7.53325e-05
7.76459e-05
7.99836e-05
8.23366e-05
8.47e-05
8.70672e-05
8.94401e-05
9.18117e-05
9.42014e-05
9.66509e-05
9.92373e-05
0.000102037
0.000105121
0.000108684
0.000112722
0.000118638
0.00012404
0.000141209
0.000153376
0.000202558
0.000217938
3.89631e-05
1.80701e-07
2.45973e-08
1.24541e-07
1.36452e-06
2.91467e-06
3.68022e-06
3.89378e-06
3.99596e-06
4.14721e-06
4.33798e-06
4.54155e-06
4.75138e-06
4.96922e-06
5.19673e-06
5.43462e-06
5.68332e-06
5.94342e-06
6.21546e-06
6.50005e-06
6.79775e-06
7.1092e-06
7.43502e-06
7.7759e-06
8.13241e-06
8.5054e-06
8.89544e-06
9.30334e-06
9.72983e-06
1.01758e-05
1.06419e-05
1.11292e-05
1.16384e-05
1.21703e-05
1.2726e-05
1.33064e-05
1.39125e-05
1.45451e-05
1.52054e-05
1.58944e-05
1.6613e-05
1.73624e-05
1.81436e-05
1.89578e-05
1.98056e-05
2.06888e-05
2.16081e-05
2.25641e-05
2.35587e-05
2.45923e-05
2.56661e-05
2.67811e-05
2.79385e-05
2.91389e-05
3.03825e-05
3.16713e-05
3.30053e-05
3.43848e-05
3.58111e-05
3.72836e-05
3.88032e-05
4.03693e-05
4.19829e-05
4.36437e-05
4.53496e-05
4.71034e-05
4.89024e-05
5.07463e-05
5.2635e-05
5.45653e-05
5.65389e-05
5.85529e-05
6.06059e-05
6.2698e-05
6.48264e-05
6.69892e-05
6.91856e-05
7.14134e-05
7.36735e-05
7.59565e-05
7.82673e-05
8.05895e-05
8.29287e-05
8.52736e-05
8.76274e-05
8.99794e-05
9.23467e-05
9.47639e-05
9.73094e-05
0.000100063
0.000103101
0.000106616
0.000110644
0.000116531
0.000122198
0.000141067
0.000153652
0.0002129
0.000222186
3.90782e-05
4.52471e-07
3.79889e-08
2.35213e-08
1.1762e-06
2.71669e-06
3.5482e-06
3.79227e-06
3.89053e-06
4.03046e-06
4.21337e-06
4.4111e-06
4.61501e-06
4.8264e-06
5.0471e-06
5.27782e-06
5.51904e-06
5.7713e-06
6.03513e-06
6.31114e-06
6.59985e-06
6.90191e-06
7.21789e-06
7.54846e-06
7.89425e-06
8.25598e-06
8.63426e-06
9.02989e-06
9.44355e-06
9.87612e-06
1.03283e-05
1.08009e-05
1.12949e-05
1.1811e-05
1.23502e-05
1.29134e-05
1.35015e-05
1.41155e-05
1.47563e-05
1.54251e-05
1.61228e-05
1.68504e-05
1.7609e-05
1.83997e-05
1.92233e-05
2.00814e-05
2.09746e-05
2.19038e-05
2.28707e-05
2.38758e-05
2.49204e-05
2.60051e-05
2.71313e-05
2.82995e-05
2.95104e-05
3.07658e-05
3.20654e-05
3.34098e-05
3.48003e-05
3.62372e-05
3.77202e-05
3.92491e-05
4.08259e-05
4.24481e-05
4.41168e-05
4.58314e-05
4.75921e-05
4.93975e-05
5.12476e-05
5.31417e-05
5.50768e-05
5.70552e-05
5.90724e-05
6.11275e-05
6.32201e-05
6.5348e-05
6.75104e-05
6.97047e-05
7.19323e-05
7.41856e-05
7.64615e-05
7.8756e-05
8.10642e-05
8.33782e-05
8.5703e-05
8.80288e-05
9.03688e-05
9.27538e-05
9.52535e-05
9.79536e-05
0.000100931
0.000104372
0.00010839
0.000114109
0.000120331
0.000139402
0.000154268
0.000221858
0.000223856
3.9179e-05
7.33581e-07
6.15302e-08
3.77417e-08
9.9847e-07
2.50892e-06
3.40559e-06
3.68638e-06
3.78343e-06
3.91174e-06
4.08605e-06
4.27769e-06
4.4756e-06
4.68044e-06
4.89413e-06
5.11752e-06
5.35109e-06
5.59534e-06
5.85078e-06
6.11803e-06
6.39756e-06
6.69001e-06
6.996e-06
7.31606e-06
7.65085e-06
8.00109e-06
8.36736e-06
8.75047e-06
9.15109e-06
9.56995e-06
1.00078e-05
1.04655e-05
1.09439e-05
1.14438e-05
1.19661e-05
1.25116e-05
1.30814e-05
1.36763e-05
1.42972e-05
1.49453e-05
1.56215e-05
1.63268e-05
1.70621e-05
1.78287e-05
1.86275e-05
1.94597e-05
2.03262e-05
2.12277e-05
2.21661e-05
2.31417e-05
2.41558e-05
2.52092e-05
2.63033e-05
2.74387e-05
2.86157e-05
2.9836e-05
3.10998e-05
3.2408e-05
3.37611e-05
3.516e-05
3.66047e-05
3.80946e-05
3.9632e-05
4.12142e-05
4.28426e-05
4.45169e-05
4.62369e-05
4.80018e-05
4.98101e-05
5.16645e-05
5.3559e-05
5.54961e-05
5.74746e-05
5.94907e-05
6.1544e-05
6.36346e-05
6.57586e-05
6.79151e-05
7.01051e-05
7.23227e-05
7.45601e-05
7.68202e-05
7.90926e-05
8.13729e-05
8.36631e-05
8.59543e-05
8.82594e-05
9.06035e-05
9.30483e-05
9.5684e-05
9.86008e-05
0.000101963
0.000105957
0.000111429
0.000118371
0.000135658
0.000156294
0.000225743
0.000223899
3.92633e-05
1.07642e-06
1.12248e-07
3.40041e-08
8.27805e-07
2.28897e-06
3.25055e-06
3.57569e-06
3.67484e-06
3.79135e-06
3.95613e-06
4.14133e-06
4.33317e-06
4.53135e-06
4.7379e-06
4.95383e-06
5.17961e-06
5.4157e-06
5.66259e-06
5.92089e-06
6.19109e-06
6.47372e-06
6.76945e-06
7.07881e-06
7.40241e-06
7.7409e-06
8.09497e-06
8.46526e-06
8.85248e-06
9.2574e-06
9.68067e-06
1.01232e-05
1.05857e-05
1.1069e-05
1.1574e-05
1.21015e-05
1.26525e-05
1.32278e-05
1.38284e-05
1.44553e-05
1.51095e-05
1.57918e-05
1.65035e-05
1.72454e-05
1.80186e-05
1.88241e-05
1.96631e-05
2.05363e-05
2.14451e-05
2.23903e-05
2.33731e-05
2.43941e-05
2.54547e-05
2.65557e-05
2.76976e-05
2.8882e-05
3.01086e-05
3.13789e-05
3.26935e-05
3.40523e-05
3.54564e-05
3.69055e-05
3.84005e-05
3.99413e-05
4.1527e-05
4.31584e-05
4.48346e-05
4.65563e-05
4.83211e-05
5.01298e-05
5.19823e-05
5.38746e-05
5.5808e-05
5.7781e-05
5.97908e-05
6.18392e-05
6.39205e-05
6.60354e-05
6.81838e-05
7.03591e-05
7.25573e-05
7.47763e-05
7.70096e-05
7.92478e-05
8.14986e-05
8.37548e-05
8.60263e-05
8.83344e-05
9.073e-05
9.33003e-05
9.61482e-05
9.94298e-05
0.000103383
0.000108627
0.000116131
0.000130746
0.000159132
0.000220309
0.000224397
3.93314e-05
1.77171e-06
1.40325e-07
1.08434e-10
6.71337e-07
2.06472e-06
3.08228e-06
3.45811e-06
3.56426e-06
3.66943e-06
3.82378e-06
4.00205e-06
4.18765e-06
4.37909e-06
4.5784e-06
4.78675e-06
5.00456e-06
5.23234e-06
5.47053e-06
5.71969e-06
5.98034e-06
6.253e-06
6.53828e-06
6.83669e-06
7.14888e-06
7.47543e-06
7.81699e-06
8.17423e-06
8.54777e-06
8.93843e-06
9.34683e-06
9.77373e-06
1.022e-05
1.06863e-05
1.11736e-05
1.16827e-05
1.22145e-05
1.27698e-05
1.33496e-05
1.39547e-05
1.45863e-05
1.52451e-05
1.59323e-05
1.66488e-05
1.73958e-05
1.81739e-05
1.89845e-05
1.98285e-05
2.07067e-05
2.16206e-05
2.25706e-05
2.35581e-05
2.45842e-05
2.56494e-05
2.67547e-05
2.79012e-05
2.90891e-05
3.03198e-05
3.15934e-05
3.29107e-05
3.42722e-05
3.56786e-05
3.71293e-05
3.86254e-05
4.01652e-05
4.17508e-05
4.33802e-05
4.50542e-05
4.67729e-05
4.85331e-05
5.03376e-05
5.21827e-05
5.40683e-05
5.59925e-05
5.79556e-05
5.99586e-05
6.19932e-05
6.40641e-05
6.61673e-05
6.82991e-05
7.0458e-05
7.26364e-05
7.48309e-05
7.70358e-05
7.92528e-05
8.14784e-05
8.37212e-05
8.59993e-05
8.83577e-05
9.08801e-05
9.36725e-05
9.68934e-05
0.000100801
0.000105901
0.000113574
0.000126302
0.000159214
0.000206789
0.000220655
3.93887e-05
3.00671e-06
1.90509e-07
1.92062e-08
5.30478e-07
1.82748e-06
2.89642e-06
3.33248e-06
3.45174e-06
3.54591e-06
3.68873e-06
3.85943e-06
4.03872e-06
4.22334e-06
4.41523e-06
4.61576e-06
4.82542e-06
5.04467e-06
5.27396e-06
5.51378e-06
5.76466e-06
6.02708e-06
6.30165e-06
6.58886e-06
6.88931e-06
7.20363e-06
7.53236e-06
7.8762e-06
8.23572e-06
8.61172e-06
9.00482e-06
9.41575e-06
9.84531e-06
1.02942e-05
1.07633e-05
1.12534e-05
1.17654e-05
1.23e-05
1.28583e-05
1.3441e-05
1.40492e-05
1.46838e-05
1.53457e-05
1.60359e-05
1.67555e-05
1.75053e-05
1.82865e-05
1.91001e-05
1.99467e-05
2.0828e-05
2.17443e-05
2.26969e-05
2.3687e-05
2.47148e-05
2.57823e-05
2.68896e-05
2.80373e-05
2.92267e-05
3.04582e-05
3.17323e-05
3.30498e-05
3.44108e-05
3.58158e-05
3.72659e-05
3.87589e-05
4.02972e-05
4.18791e-05
4.35045e-05
4.51743e-05
4.68874e-05
4.86424e-05
5.04387e-05
5.22771e-05
5.41547e-05
5.60708e-05
5.80285e-05
6.0021e-05
6.2052e-05
6.41169e-05
6.62159e-05
6.83409e-05
7.04907e-05
7.26583e-05
7.48398e-05
7.704e-05
7.92522e-05
8.14878e-05
8.37545e-05
8.60958e-05
8.85929e-05
9.1352e-05
9.45288e-05
9.83789e-05
0.000103381
0.000110878
0.000122887
0.000154594
0.000192784
0.000214068
3.94275e-05
6.21872e-07
3.3383e-08
1.91303e-08
3.99156e-07
1.58666e-06
2.69431e-06
3.19627e-06
3.3356e-06
3.42037e-06
3.55066e-06
3.71301e-06
3.88574e-06
4.06346e-06
4.2478e-06
4.44033e-06
4.64165e-06
4.85217e-06
5.07233e-06
5.30258e-06
5.54346e-06
5.79541e-06
6.05902e-06
6.33478e-06
6.62325e-06
6.92503e-06
7.24063e-06
7.57074e-06
7.91594e-06
8.27694e-06
8.65438e-06
9.04893e-06
9.46139e-06
9.89246e-06
1.03429e-05
1.08136e-05
1.13053e-05
1.18187e-05
1.23549e-05
1.29147e-05
1.34989e-05
1.41086e-05
1.47446e-05
1.54079e-05
1.60993e-05
1.68201e-05
1.7571e-05
1.83534e-05
1.9168e-05
2.00163e-05
2.08986e-05
2.18166e-05
2.27708e-05
2.37622e-05
2.47921e-05
2.5861e-05
2.69698e-05
2.81194e-05
2.93106e-05
3.05437e-05
3.18201e-05
3.31391e-05
3.45023e-05
3.59094e-05
3.73601e-05
3.88561e-05
4.03961e-05
4.19805e-05
4.36078e-05
4.52807e-05
4.69947e-05
4.87522e-05
5.05515e-05
5.2394e-05
5.42762e-05
5.62025e-05
5.81675e-05
6.01713e-05
6.22148e-05
6.42938e-05
6.64033e-05
6.85386e-05
7.06957e-05
7.28726e-05
7.50667e-05
7.72771e-05
7.95141e-05
8.17816e-05
8.41138e-05
8.65879e-05
8.93114e-05
9.244e-05
9.62197e-05
0.000101111
0.000108271
0.000119889
0.000147586
0.000180943
0.000206878
3.9448e-05
2.03138e-06
1.67431e-07
1.74879e-09
2.8691e-07
1.35736e-06
2.48722e-06
3.05607e-06
3.2219e-06
3.30018e-06
3.41791e-06
3.57162e-06
3.73799e-06
3.90925e-06
4.08651e-06
4.27149e-06
4.46495e-06
4.66727e-06
4.87885e-06
5.10015e-06
5.33167e-06
5.57385e-06
5.82724e-06
6.09233e-06
6.36964e-06
6.65977e-06
6.96324e-06
7.28067e-06
7.61268e-06
7.95988e-06
8.32293e-06
8.70251e-06
9.09935e-06
9.51416e-06
9.94768e-06
1.04007e-05
1.0874e-05
1.13684e-05
1.18848e-05
1.2424e-05
1.29868e-05
1.35743e-05
1.41872e-05
1.48266e-05
1.54934e-05
1.61885e-05
1.69132e-05
1.76684e-05
1.84556e-05
1.9276e-05
2.01302e-05
2.10196e-05
2.19446e-05
2.29071e-05
2.39075e-05
2.49467e-05
2.60258e-05
2.7146e-05
2.83075e-05
2.9511e-05
3.07582e-05
3.20484e-05
3.33837e-05
3.47627e-05
3.61866e-05
3.76564e-05
3.9171e-05
4.0732e-05
4.23367e-05
4.39888e-05
4.56844e-05
4.7426e-05
4.92104e-05
5.10383e-05
5.29098e-05
5.48242e-05
5.67815e-05
5.87765e-05
6.08135e-05
6.28826e-05
6.4986e-05
6.7113e-05
6.92592e-05
7.14236e-05
7.36038e-05
7.57958e-05
7.80116e-05
8.0253e-05
8.25561e-05
8.49855e-05
8.76497e-05
9.07021e-05
9.43712e-05
9.90933e-05
0.000105842
0.000116936
0.000140526
0.00017145
0.000200595
3.94564e-05
3.8188e-06
1.99468e-09
2.44428e-08
2.36172e-07
1.23998e-06
2.37593e-06
2.98179e-06
3.16518e-06
3.2414e-06
3.35244e-06
3.50142e-06
3.66464e-06
3.83285e-06
4.00677e-06
4.18822e-06
4.37801e-06
4.57653e-06
4.7842e-06
5.00146e-06
5.22879e-06
5.46665e-06
5.71557e-06
5.97604e-06
6.24858e-06
6.53375e-06
6.83214e-06
7.14434e-06
7.47096e-06
7.81262e-06
8.16995e-06
8.54369e-06
8.93453e-06
9.34319e-06
9.77043e-06
1.0217e-05
1.06838e-05
1.11715e-05
1.1681e-05
1.22133e-05
1.27692e-05
1.33495e-05
1.39553e-05
1.45875e-05
1.52469e-05
1.59348e-05
1.66521e-05
1.73999e-05
1.81797e-05
1.89925e-05
1.98391e-05
2.07208e-05
2.16383e-05
2.2593e-05
2.35853e-05
2.46167e-05
2.56876e-05
2.67995e-05
2.79526e-05
2.91472e-05
3.03855e-05
3.16662e-05
3.29913e-05
3.43594e-05
3.57717e-05
3.7229e-05
3.87304e-05
4.02807e-05
4.18789e-05
4.35283e-05
4.52243e-05
4.69674e-05
4.87544e-05
5.05827e-05
5.24556e-05
5.43664e-05
5.63185e-05
5.83051e-05
6.03279e-05
6.23765e-05
6.44545e-05
6.65495e-05
6.86597e-05
7.07812e-05
7.29166e-05
7.50569e-05
7.72174e-05
7.93961e-05
8.16324e-05
8.39797e-05
8.65497e-05
8.94827e-05
9.29864e-05
9.74785e-05
0.000103776
0.000114135
0.000134395
0.000163917
0.000195017
3.94461e-05
2.06589e-06
1.66568e-07
2.24669e-08
2.86267e-07
1.35562e-06
2.48598e-06
3.05514e-06
3.22117e-06
3.29934e-06
3.41702e-06
3.57068e-06
3.73712e-06
3.90853e-06
4.08602e-06
4.27132e-06
4.46519e-06
4.66801e-06
4.88021e-06
5.10225e-06
5.33463e-06
5.57781e-06
5.83234e-06
6.09873e-06
6.37752e-06
6.66928e-06
6.97462e-06
7.29415e-06
7.6285e-06
7.97832e-06
8.34428e-06
8.7271e-06
9.12751e-06
9.54626e-06
9.98416e-06
1.0442e-05
1.09206e-05
1.14208e-05
1.19436e-05
1.24897e-05
1.30602e-05
1.36559e-05
1.42779e-05
1.49272e-05
1.56046e-05
1.63114e-05
1.70483e-05
1.78167e-05
1.86172e-05
1.94514e-05
2.03198e-05
2.12239e-05
2.21643e-05
2.31418e-05
2.41577e-05
2.5213e-05
2.63076e-05
2.74434e-05
2.86203e-05
2.9839e-05
3.11001e-05
3.24035e-05
3.37505e-05
3.51393e-05
3.65716e-05
3.8046e-05
3.95632e-05
4.11266e-05
4.27359e-05
4.43919e-05
4.60903e-05
4.78316e-05
4.96109e-05
5.14272e-05
5.3279e-05
5.51616e-05
5.70774e-05
5.90157e-05
6.09801e-05
6.29572e-05
6.49478e-05
6.69466e-05
6.89781e-05
7.10528e-05
7.31466e-05
7.52427e-05
7.73386e-05
7.94428e-05
8.15893e-05
8.38372e-05
8.62847e-05
8.9062e-05
9.23564e-05
9.65712e-05
0.000102394
0.000111932
0.000129404
0.000157922
0.000186547
3.9428e-05
8.26771e-07
2.07361e-09
2.16174e-08
3.98365e-07
1.58617e-06
2.69337e-06
3.19552e-06
3.33503e-06
3.41975e-06
3.55008e-06
3.71246e-06
3.88534e-06
4.06328e-06
4.24796e-06
4.44091e-06
4.64279e-06
4.85397e-06
5.07491e-06
5.3061e-06
5.54806e-06
5.80128e-06
6.06631e-06
6.34368e-06
6.63399e-06
6.93779e-06
7.25573e-06
7.58844e-06
7.93656e-06
8.30079e-06
8.68181e-06
9.08041e-06
9.49727e-06
9.93325e-06
1.03891e-05
1.08658e-05
1.1364e-05
1.18848e-05
1.24289e-05
1.29974e-05
1.35912e-05
1.42112e-05
1.48586e-05
1.55342e-05
1.62393e-05
1.69746e-05
1.77414e-05
1.85406e-05
1.93731e-05
2.02404e-05
2.11428e-05
2.20822e-05
2.3059e-05
2.40739e-05
2.51287e-05
2.62236e-05
2.73594e-05
2.85367e-05
2.97565e-05
3.10192e-05
3.23245e-05
3.36738e-05
3.5067e-05
3.65029e-05
3.79836e-05
3.95059e-05
4.10713e-05
4.26783e-05
4.43264e-05
4.60144e-05
4.77394e-05
4.95016e-05
5.12983e-05
5.3126e-05
5.49835e-05
5.68645e-05
5.87714e-05
6.06927e-05
6.26295e-05
6.45704e-05
6.65115e-05
6.84468e-05
7.03998e-05
7.23777e-05
7.43556e-05
7.6319e-05
7.82483e-05
8.01701e-05
8.21752e-05
8.43377e-05
8.66938e-05
8.93406e-05
9.24493e-05
9.64095e-05
0.00010176
0.000110559
0.000125389
0.000153693
0.000188575
3.9388e-05
2.71484e-06
1.18733e-07
2.18769e-08
5.31459e-07
1.82644e-06
2.89534e-06
3.33181e-06
3.45125e-06
3.54535e-06
3.68819e-06
3.85899e-06
4.03846e-06
4.22332e-06
4.41554e-06
4.61646e-06
4.82667e-06
5.04657e-06
5.27663e-06
5.51735e-06
5.76928e-06
6.03295e-06
6.30892e-06
6.59771e-06
6.89998e-06
7.21627e-06
7.54728e-06
7.89362e-06
8.25603e-06
8.63514e-06
9.03173e-06
9.4466e-06
9.88044e-06
1.03341e-05
1.08085e-05
1.13044e-05
1.18227e-05
1.23644e-05
1.29303e-05
1.35215e-05
1.41389e-05
1.47836e-05
1.54564e-05
1.61586e-05
1.68912e-05
1.7655e-05
1.84515e-05
1.92815e-05
2.0146e-05
2.10458e-05
2.19825e-05
2.29568e-05
2.39698e-05
2.50223e-05
2.61152e-05
2.72496e-05
2.84257e-05
2.96445e-05
3.09068e-05
3.2213e-05
3.35629e-05
3.49572e-05
3.63961e-05
3.78783e-05
3.94059e-05
4.09762e-05
4.25893e-05
4.42439e-05
4.59392e-05
4.76747e-05
4.94464e-05
5.12542e-05
5.30971e-05
5.49693e-05
5.68724e-05
5.87971e-05
6.07465e-05
6.27128e-05
6.46913e-05
6.66749e-05
6.866e-05
7.06327e-05
7.25848e-05
7.45066e-05
7.63941e-05
7.82398e-05
8.00287e-05
8.17787e-05
8.35954e-05
8.55466e-05
8.76798e-05
9.00915e-05
9.29582e-05
9.66792e-05
0.000101676
0.000110134
0.000122716
0.000154118
0.000194154
3.93331e-05
7.94757e-07
4.05523e-08
2.69492e-08
6.7277e-07
2.0624e-06
3.08147e-06
3.4577e-06
3.56392e-06
3.66895e-06
3.82334e-06
4.00176e-06
4.18755e-06
4.37923e-06
4.57885e-06
4.78758e-06
5.00593e-06
5.23434e-06
5.47331e-06
5.72339e-06
5.98506e-06
6.25893e-06
6.54558e-06
6.84556e-06
7.15951e-06
7.48802e-06
7.8318e-06
8.1915e-06
8.56784e-06
8.96149e-06
9.37332e-06
9.80402e-06
1.02545e-05
1.07255e-05
1.12179e-05
1.17326e-05
1.22705e-05
1.28326e-05
1.34197e-05
1.4033e-05
1.46734e-05
1.5342e-05