/*--------------------------------*- C++ -*----------------------------------*\
  =========                 |
  \\      /  F ield         | OpenFOAM: The Open Source CFD Toolbox
   \\    /   O peration     | Website:  https://openfoam.org
    \\  /    A nd           | Version:  9
     \\/     M anipulation  |
\*---------------------------------------------------------------------------*/
FoamFile
{
    format      ascii;
    class       volScalarField;
    location    "750";
    object      nut;
}
// * * * * * * * * * * * * * * * * * * * * * * * * * * * * * * * * * * * * * //

dimensions      [0 2 -1 0 0 0 0];

internalField   nonuniform List<scalar> 
13446
(
9.10459e-07
9.10676e-07
9.49141e-07
9.10859e-07
7.91616e-07
1.15456e-06
9.05608e-07
8.79073e-07
9.11052e-07
8.15774e-08
7.66444e-06
9.0259e-07
8.80433e-07
8.69924e-07
9.11141e-07
6.94465e-07
7.20055e-06
9.06365e-07
8.82049e-07
8.7049e-07
8.68007e-07
9.1137e-07
4.52541e-07
5.23184e-07
9.07057e-07
8.84041e-07
8.7129e-07
8.68146e-07
8.68842e-07
8.69337e-07
8.693e-07
8.69188e-07
8.69125e-07
8.69095e-07
8.69085e-07
8.69096e-07
8.69128e-07
8.69182e-07
8.69259e-07
8.6936e-07
8.69486e-07
8.69639e-07
8.69818e-07
8.70026e-07
8.70264e-07
8.70532e-07
8.70832e-07
8.71165e-07
8.71533e-07
8.71936e-07
8.72377e-07
8.72847e-07
9.11511e-07
3.70754e-06
4.33568e-07
9.0587e-07
8.85571e-07
8.72237e-07
8.68326e-07
8.68915e-07
8.69501e-07
8.69486e-07
8.69362e-07
8.6929e-07
8.69254e-07
8.69238e-07
8.69242e-07
8.69268e-07
8.69315e-07
8.69385e-07
8.69479e-07
8.69597e-07
8.69741e-07
8.69913e-07
8.70111e-07
8.70339e-07
8.70598e-07
8.70888e-07
8.7121e-07
8.71566e-07
8.71958e-07
8.72385e-07
8.72853e-07
8.73342e-07
8.7387e-07
9.26708e-07
9.28181e-07
9.29682e-07
9.31187e-07
9.32682e-07
9.34168e-07
9.35588e-07
9.36527e-07
9.36028e-07
9.33766e-07
9.29864e-07
9.24885e-07
9.19993e-07
9.16698e-07
9.15908e-07
9.17387e-07
9.2033e-07
9.23935e-07
9.2804e-07
9.32227e-07
9.37677e-07
9.42609e-07
9.51402e-07
9.60424e-07
1.01422e-06
2.46225e-07
9.11548e-07
4.82423e-07
1.37387e-06
9.03853e-07
8.87497e-07
8.73241e-07
8.68515e-07
8.68965e-07
8.69647e-07
8.69668e-07
8.69535e-07
8.69452e-07
8.69408e-07
8.69385e-07
8.69382e-07
8.694e-07
8.69439e-07
8.69502e-07
8.69587e-07
8.69697e-07
8.69832e-07
8.69993e-07
8.70182e-07
8.704e-07
8.70648e-07
8.70926e-07
8.71237e-07
8.71581e-07
8.71959e-07
8.72374e-07
8.72825e-07
8.73316e-07
8.7385e-07
8.74394e-07
9.24627e-07
9.26125e-07
9.27645e-07
9.29167e-07
9.30675e-07
9.3217e-07
9.33657e-07
9.35067e-07
9.35913e-07
9.35375e-07
9.33118e-07
9.2932e-07
9.24496e-07
9.19655e-07
9.16232e-07
9.15218e-07
9.16539e-07
9.19454e-07
9.23123e-07
9.27366e-07
9.31714e-07
9.37431e-07
9.42572e-07
9.51707e-07
9.60182e-07
1.0117e-06
2.441e-07
9.1183e-07
2.03804e-07
4.55216e-07
9.24078e-07
8.90359e-07
8.74188e-07
8.68711e-07
8.69019e-07
8.69795e-07
8.69856e-07
8.69714e-07
8.69618e-07
8.69566e-07
8.69537e-07
8.69526e-07
8.69536e-07
8.69567e-07
8.69621e-07
8.69698e-07
8.69799e-07
8.69925e-07
8.70077e-07
8.70256e-07
8.70462e-07
8.70699e-07
8.70966e-07
8.71265e-07
8.71596e-07
8.71961e-07
8.72362e-07
8.728e-07
8.73275e-07
8.73788e-07
8.74346e-07
8.74927e-07
8.75545e-07
9.22492e-07
9.24019e-07
9.25557e-07
9.27089e-07
9.28608e-07
9.3012e-07
9.31619e-07
9.33111e-07
9.34509e-07
9.35267e-07
9.34717e-07
9.32474e-07
9.28799e-07
9.24121e-07
9.19307e-07
9.15741e-07
9.14498e-07
9.15639e-07
9.18502e-07
9.22231e-07
9.2662e-07
9.31155e-07
9.3717e-07
9.4258e-07
9.52238e-07
9.60361e-07
1.01042e-06
2.41777e-07
9.11872e-07
2.25018e-06
1.5589e-06
9.22584e-07
8.92708e-07
8.75351e-07
8.6901e-07
8.69073e-07
8.69938e-07
8.70052e-07
8.69903e-07
8.69793e-07
8.69732e-07
8.69695e-07
8.69677e-07
8.69679e-07
8.69702e-07
8.69747e-07
8.69815e-07
8.69906e-07
8.70022e-07
8.70164e-07
8.70332e-07
8.70528e-07
8.70753e-07
8.71008e-07
8.71294e-07
8.71612e-07
8.71964e-07
8.72351e-07
8.72774e-07
8.73234e-07
8.73732e-07
8.74268e-07
8.74846e-07
8.75469e-07
8.76105e-07
9.10851e-07
9.12398e-07
9.13974e-07
9.15565e-07
9.17154e-07
9.18734e-07
9.20304e-07
9.21866e-07
9.23424e-07
9.24968e-07
9.26502e-07
9.28024e-07
9.2954e-07
9.31045e-07
9.32539e-07
9.33921e-07
9.34662e-07
9.34074e-07
9.31855e-07
9.28301e-07
9.23746e-07
9.18952e-07
9.15241e-07
9.13757e-07
9.14704e-07
9.17495e-07
9.21275e-07
9.25804e-07
9.30536e-07
9.3689e-07
9.42628e-07
9.53028e-07
9.61045e-07
1.01061e-06
2.38922e-07
9.11945e-07
1.94553e-07
1.19032e-06
9.27834e-07
8.95432e-07
8.76617e-07
8.69361e-07
8.69134e-07
8.70076e-07
8.70254e-07
8.70101e-07
8.69976e-07
8.69905e-07
8.69861e-07
8.69834e-07
8.69828e-07
8.69842e-07
8.69878e-07
8.69936e-07
8.70018e-07
8.70124e-07
8.70255e-07
8.70412e-07
8.70596e-07
8.70809e-07
8.71051e-07
8.71325e-07
8.71629e-07
8.71967e-07
8.72339e-07
8.72747e-07
8.73192e-07
8.73673e-07
8.74194e-07
8.74754e-07
8.75353e-07
8.75999e-07
8.76671e-07
8.77378e-07
9.08628e-07
9.10191e-07
9.11779e-07
9.13376e-07
9.14968e-07
9.16553e-07
9.18128e-07
9.19697e-07
9.21256e-07
9.22809e-07
9.24351e-07
9.25889e-07
9.27414e-07
9.28929e-07
9.30437e-07
9.31936e-07
9.33311e-07
9.33997e-07
9.33367e-07
9.3124e-07
9.27778e-07
9.23318e-07
9.18564e-07
9.14743e-07
9.13023e-07
9.13757e-07
9.1644e-07
9.20244e-07
9.24914e-07
9.29853e-07
9.36582e-07
9.4271e-07
9.54104e-07
9.62135e-07
1.01362e-06
2.37113e-07
9.12147e-07
1.26262e-06
1.85825e-06
9.46129e-07
8.98072e-07
8.7799e-07
8.69822e-07
8.69209e-07
8.70205e-07
8.70461e-07
8.70311e-07
8.70169e-07
8.70087e-07
8.70034e-07
8.69999e-07
8.69984e-07
8.69989e-07
8.70015e-07
8.70064e-07
8.70135e-07
8.7023e-07
8.7035e-07
8.70496e-07
8.70668e-07
8.70868e-07
8.71097e-07
8.71357e-07
8.71648e-07
8.71971e-07
8.72328e-07
8.7272e-07
8.73148e-07
8.73614e-07
8.74117e-07
8.74659e-07
8.75241e-07
8.75863e-07
8.76528e-07
8.77239e-07
8.77977e-07
8.7875e-07
8.98795e-07
9.00272e-07
9.01751e-07
9.03263e-07
9.04813e-07
9.06385e-07
9.07968e-07
9.09561e-07
9.11154e-07
9.12741e-07
9.14323e-07
9.15904e-07
9.17476e-07
9.19044e-07
9.20605e-07
9.2216e-07
9.23704e-07
9.25243e-07
9.26772e-07
9.28292e-07
9.29804e-07
9.31301e-07
9.3265e-07
9.3334e-07
9.32706e-07
9.30577e-07
9.27174e-07
9.22838e-07
9.18165e-07
9.14266e-07
9.12302e-07
9.12775e-07
9.15324e-07
9.1914e-07
9.23943e-07
9.29091e-07
9.3624e-07
9.42815e-07
9.55512e-07
9.63693e-07
1.02014e-06
2.34757e-07
9.12163e-07
1.27847e-06
7.40524e-07
9.42678e-07
9.00539e-07
8.79669e-07
8.70377e-07
8.69281e-07
8.70327e-07
8.70672e-07
8.7053e-07
8.70372e-07
8.70277e-07
8.70215e-07
8.70171e-07
8.70147e-07
8.70142e-07
8.70159e-07
8.70197e-07
8.70258e-07
8.70342e-07
8.7045e-07
8.70584e-07
8.70744e-07
8.70931e-07
8.71147e-07
8.71392e-07
8.71669e-07
8.71977e-07
8.72318e-07
8.72694e-07
8.73105e-07
8.73553e-07
8.74039e-07
8.74563e-07
8.75126e-07
8.7573e-07
8.76374e-07
8.7706e-07
8.7779e-07
8.78566e-07
8.79369e-07
8.80219e-07
8.81122e-07
8.8206e-07
8.98249e-07
8.99697e-07
9.01168e-07
9.02677e-07
9.04217e-07
9.05776e-07
9.07346e-07
9.08922e-07
9.105e-07
9.12077e-07
9.13655e-07
9.1523e-07
9.168e-07
9.18365e-07
9.19925e-07
9.21481e-07
9.23026e-07
9.24566e-07
9.26097e-07
9.27619e-07
9.29134e-07
9.30633e-07
9.31979e-07
9.32641e-07
9.31947e-07
9.2982e-07
9.26519e-07
9.22347e-07
9.17783e-07
9.13809e-07
9.11595e-07
9.11777e-07
9.14149e-07
9.17951e-07
9.22883e-07
9.28255e-07
9.35866e-07
9.42902e-07
9.57313e-07
9.65714e-07
1.03087e-06
2.30066e-07
9.1232e-07
9.46926e-07
1.30529e-06
9.64764e-07
9.06357e-07
8.81672e-07
8.70925e-07
8.69335e-07
8.70439e-07
8.70889e-07
8.70762e-07
8.70585e-07
8.70476e-07
8.70404e-07
8.70352e-07
8.70317e-07
8.70303e-07
8.70309e-07
8.70337e-07
8.70387e-07
8.70459e-07
8.70556e-07
8.70677e-07
8.70824e-07
8.70998e-07
8.712e-07
8.71431e-07
8.71692e-07
8.71985e-07
8.7231e-07
8.72669e-07
8.73063e-07
8.73493e-07
8.7396e-07
8.74465e-07
8.75009e-07
8.75593e-07
8.76217e-07
8.76882e-07
8.7759e-07
8.7834e-07
8.79135e-07
8.79974e-07
8.80854e-07
8.8178e-07
8.82738e-07
8.83731e-07
8.97631e-07
8.99062e-07
9.00536e-07
9.02044e-07
9.03575e-07
9.05122e-07
9.06678e-07
9.08243e-07
9.09812e-07
9.11383e-07
9.12954e-07
9.14523e-07
9.16089e-07
9.17652e-07
9.19211e-07
9.20765e-07
9.22313e-07
9.23853e-07
9.25384e-07
9.2691e-07
9.28428e-07
9.29929e-07
9.31266e-07
9.31869e-07
9.31112e-07
9.29025e-07
9.25846e-07
9.21835e-07
9.17386e-07
9.13352e-07
9.10882e-07
9.1075e-07
9.12902e-07
9.16653e-07
9.2171e-07
9.27297e-07
9.35455e-07
9.42937e-07
9.596e-07
9.68311e-07
1.04625e-06
2.2613e-07
9.12362e-07
6.37122e-07
2.24209e-06
9.76378e-07
9.10161e-07
8.83882e-07
8.71667e-07
8.69429e-07
8.70539e-07
8.71106e-07
8.71003e-07
8.70809e-07
8.70686e-07
8.70603e-07
8.70541e-07
8.70497e-07
8.70472e-07
8.70468e-07
8.70484e-07
8.70523e-07
8.70583e-07
8.70667e-07
8.70776e-07
8.7091e-07
8.7107e-07
8.71257e-07
8.71473e-07
8.71718e-07
8.71995e-07
8.72303e-07
8.72645e-07
8.73021e-07
8.73433e-07
8.73881e-07
8.74367e-07
8.74891e-07
8.75454e-07
8.76057e-07
8.76701e-07
8.77387e-07
8.78115e-07
8.78886e-07
8.797e-07
8.80558e-07
8.81459e-07
8.82405e-07
8.83398e-07
8.84419e-07
8.85485e-07
8.86599e-07
8.87761e-07
8.88964e-07
8.90205e-07
8.91485e-07
8.92802e-07
8.94154e-07
8.95542e-07
8.96962e-07
8.98414e-07
8.99894e-07
9.01394e-07
9.0291e-07
9.04443e-07
9.05986e-07
9.07539e-07
9.09097e-07
9.10659e-07
9.12223e-07
9.13786e-07
9.15348e-07
9.16906e-07
9.18462e-07
9.20014e-07
9.21561e-07
9.231e-07
9.24635e-07
9.26163e-07
9.27682e-07
9.29185e-07
9.30501e-07
9.31013e-07
9.30288e-07
9.28266e-07
9.25184e-07
9.21305e-07
9.16945e-07
9.12845e-07
9.1013e-07
9.09672e-07
9.11576e-07
9.15227e-07
9.20392e-07
9.26198e-07
9.35009e-07
9.42872e-07
9.62442e-07
9.71882e-07
1.06627e-06
2.20825e-07
9.12414e-07
6.8115e-07
3.88652e-07
9.76225e-07
9.1258e-07
8.85914e-07
8.72647e-07
8.69622e-07
8.70633e-07
8.7132e-07
8.71256e-07
8.71047e-07
8.70906e-07
8.70813e-07
8.7074e-07
8.70685e-07
8.7065e-07
8.70634e-07
8.70639e-07
8.70666e-07
8.70714e-07
8.70785e-07
8.7088e-07
8.71e-07
8.71146e-07
8.71319e-07
8.7152e-07
8.71749e-07
8.72009e-07
8.723e-07
8.72624e-07
8.72981e-07
8.73374e-07
8.73802e-07
8.74267e-07
8.74771e-07
8.75313e-07
8.75894e-07
8.76516e-07
8.77179e-07
8.77885e-07
8.78633e-07
8.79423e-07
8.80257e-07
8.81134e-07
8.82056e-07
8.83019e-07
8.84028e-07
8.85081e-07
8.86174e-07
8.87309e-07
8.88486e-07
8.89704e-07
8.9096e-07
8.92256e-07
8.93587e-07
8.94955e-07
8.96355e-07
8.97784e-07
8.99238e-07
9.00718e-07
9.02217e-07
9.03734e-07
9.05264e-07
9.06804e-07
9.08349e-07
9.09901e-07
9.11455e-07
9.13011e-07
9.14567e-07
9.1612e-07
9.17673e-07
9.19223e-07
9.20769e-07
9.22308e-07
9.23842e-07
9.2537e-07
9.26893e-07
9.28398e-07
9.29663e-07
9.30164e-07
9.29428e-07
9.27434e-07
9.24443e-07
9.20689e-07
9.16417e-07
9.12264e-07
9.09332e-07
9.08559e-07
9.10179e-07
9.13674e-07
9.18908e-07
9.24924e-07
9.34514e-07
9.42645e-07
9.65963e-07
9.76488e-07
1.09078e-06
2.16471e-07
9.12538e-07
2.65344e-06
2.71969e-08
1.01863e-06
9.15034e-07
8.8798e-07
8.73745e-07
8.69869e-07
8.70722e-07
8.71531e-07
8.71518e-07
8.71296e-07
8.71137e-07
8.71032e-07
8.70949e-07
8.70883e-07
8.70837e-07
8.7081e-07
8.70803e-07
8.70817e-07
8.70853e-07
8.70911e-07
8.70992e-07
8.71098e-07
8.71229e-07
8.71386e-07
8.71571e-07
8.71784e-07
8.72027e-07
8.723e-07
8.72605e-07
8.72944e-07
8.73316e-07
8.73724e-07
8.74169e-07
8.74651e-07
8.75171e-07
8.7573e-07
8.76329e-07
8.76969e-07
8.7765e-07
8.78374e-07
8.7914e-07
8.79949e-07
8.80801e-07
8.81697e-07
8.82637e-07
8.83618e-07
8.84644e-07
8.85712e-07
8.86823e-07
8.87976e-07
8.8917e-07
8.90403e-07
8.91675e-07
8.92984e-07
8.94329e-07
8.95707e-07
8.97116e-07
8.98552e-07
9.00014e-07
9.01496e-07
9.02996e-07
9.04511e-07
9.06035e-07
9.07569e-07
9.09108e-07
9.10653e-07
9.122e-07
9.1375e-07
9.15299e-07
9.16846e-07
9.18394e-07
9.19936e-07
9.21473e-07
9.23006e-07
9.24534e-07
9.26056e-07
9.27554e-07
9.288e-07
9.29259e-07
9.28506e-07
9.26547e-07
9.23634e-07
9.19975e-07
9.15778e-07
9.116e-07
9.08485e-07
9.07412e-07
9.08715e-07
9.12002e-07
9.17254e-07
9.23454e-07
9.33943e-07
9.42218e-07
9.70293e-07
9.82258e-07
1.11886e-06
2.12025e-07
9.12562e-07
3.97936e-07
2.82672e-07
1.02141e-06
9.20316e-07
8.90977e-07
8.75007e-07
8.70119e-07
8.7079e-07
8.71738e-07
8.71792e-07
8.71559e-07
8.7138e-07
8.71262e-07
8.71169e-07
8.71092e-07
8.71033e-07
8.70995e-07
8.70975e-07
8.70977e-07
8.70999e-07
8.71044e-07
8.71111e-07
8.71202e-07
8.71318e-07
8.71459e-07
8.71627e-07
8.71823e-07
8.72048e-07
8.72303e-07
8.7259e-07
8.72909e-07
8.73261e-07
8.73648e-07
8.74071e-07
8.7453e-07
8.75028e-07
8.75564e-07
8.76139e-07
8.76755e-07
8.77411e-07
8.7811e-07
8.78851e-07
8.79634e-07
8.80461e-07
8.8133e-07
8.82243e-07
8.83199e-07
8.84198e-07
8.8524e-07
8.86325e-07
8.87452e-07
8.8862e-07
8.89828e-07
8.91075e-07
8.92361e-07
8.93682e-07
8.95038e-07
8.96425e-07
8.9784e-07
8.99282e-07
9.00746e-07
9.02227e-07
9.03727e-07
9.05235e-07
9.06755e-07
9.08282e-07
9.09817e-07
9.11354e-07
9.12893e-07
9.14434e-07
9.15976e-07
9.17518e-07
9.19055e-07
9.20591e-07
9.22123e-07
9.23651e-07
9.25171e-07
9.26663e-07
9.27877e-07
9.28289e-07
9.27511e-07
9.25575e-07
9.22711e-07
9.19129e-07
9.15015e-07
9.10859e-07
9.07607e-07
9.06252e-07
9.07228e-07
9.10269e-07
9.15465e-07
9.2179e-07
9.33234e-07
9.41549e-07
9.75672e-07
9.88862e-07
1.14724e-06
2.09842e-07
9.12608e-07
2.92251e-06
7.98836e-07
1.17057e-06
9.28768e-07
8.94369e-07
8.7645e-07
8.70431e-07
8.70845e-07
8.71935e-07
8.72077e-07
8.71838e-07
8.71636e-07
8.71503e-07
8.71399e-07
8.7131e-07
8.7124e-07
8.71189e-07
8.71157e-07
8.71145e-07
8.71154e-07
8.71185e-07
8.71237e-07
8.71313e-07
8.71414e-07
8.71539e-07
8.7169e-07
8.71868e-07
8.72075e-07
8.72311e-07
8.72578e-07
8.72876e-07
8.73208e-07
8.73573e-07
8.73974e-07
8.74411e-07
8.74885e-07
8.75397e-07
8.75948e-07
8.76538e-07
8.77169e-07
8.77842e-07
8.78556e-07
8.79313e-07
8.80112e-07
8.80955e-07
8.81841e-07
8.82769e-07
8.8374e-07
8.84754e-07
8.85812e-07
8.86912e-07
8.88053e-07
8.89235e-07
8.90456e-07
8.91716e-07
8.93013e-07
8.94344e-07
8.95707e-07
8.971e-07
8.9852e-07
8.99963e-07
9.01427e-07
9.02908e-07
9.044e-07
9.05904e-07
9.07417e-07
9.08938e-07
9.10464e-07
9.11993e-07
9.13525e-07
9.1506e-07
9.16596e-07
9.18129e-07
9.19662e-07
9.21188e-07
9.22714e-07
9.24234e-07
9.25717e-07
9.26892e-07
9.27254e-07
9.26442e-07
9.24497e-07
9.21645e-07
9.18142e-07
9.14164e-07
9.10093e-07
9.06735e-07
9.05085e-07
9.05709e-07
9.08478e-07
9.13564e-07
9.19979e-07
9.32309e-07
9.40674e-07
9.82266e-07
9.95685e-07
1.16931e-06
2.08824e-07
9.12804e-07
1.52382e-06
2.54151e-06
2.64016e-06
9.40265e-07
8.98473e-07
8.78147e-07
8.70829e-07
8.70891e-07
8.72119e-07
8.72368e-07
8.72132e-07
8.71905e-07
8.71756e-07
8.7164e-07
8.7154e-07
8.71458e-07
8.71394e-07
8.71349e-07
8.71323e-07
8.71318e-07
8.71334e-07
8.71372e-07
8.71432e-07
8.71516e-07
8.71624e-07
8.71758e-07
8.71919e-07
8.72106e-07
8.72323e-07
8.7257e-07
8.72848e-07
8.73157e-07
8.73501e-07
8.73879e-07
8.74292e-07
8.74742e-07
8.75229e-07
8.75755e-07
8.76319e-07
8.76924e-07
8.7757e-07
8.78257e-07
8.78986e-07
8.79757e-07
8.80571e-07
8.81429e-07
8.82328e-07
8.83271e-07
8.84256e-07
8.85285e-07
8.86356e-07
8.87469e-07
8.88622e-07
8.89816e-07
8.91049e-07
8.92319e-07
8.93625e-07
8.94963e-07
8.96332e-07
8.97729e-07
8.99149e-07
9.00592e-07
9.02052e-07
9.03526e-07
9.05015e-07
9.06512e-07
9.08019e-07
9.09532e-07
9.1105e-07
9.12572e-07
9.14099e-07
9.15625e-07
9.17152e-07
9.18678e-07
9.20202e-07
9.21725e-07
9.23242e-07
9.24711e-07
9.25841e-07
9.2614e-07
9.25246e-07
9.23261e-07
9.20433e-07
9.17056e-07
9.13259e-07
9.0929e-07
9.05838e-07
9.03889e-07
9.04144e-07
9.06627e-07
9.11552e-07
9.18053e-07
9.31029e-07
9.39762e-07
9.89681e-07
1.00254e-06
1.05528e-06
2.04889e-07
9.12746e-07
4.99242e-08
8.20399e-08
1.18151e-06
9.38095e-07
9.02478e-07
8.80316e-07
8.71448e-07
8.70944e-07
8.72277e-07
8.72666e-07
8.72443e-07
8.72191e-07
8.72022e-07
8.71893e-07
8.71782e-07
8.71686e-07
8.71609e-07
8.71551e-07
8.71512e-07
8.71492e-07
8.71493e-07
8.71515e-07
8.71559e-07
8.71626e-07
8.71717e-07
8.71833e-07
8.71975e-07
8.72143e-07
8.7234e-07
8.72566e-07
8.72823e-07
8.73111e-07
8.73431e-07
8.73785e-07
8.74174e-07
8.74599e-07
8.75061e-07
8.7556e-07
8.76098e-07
8.76676e-07
8.77294e-07
8.77952e-07
8.78653e-07
8.79394e-07
8.80179e-07
8.81007e-07
8.81876e-07
8.82789e-07
8.83744e-07
8.84743e-07
8.85783e-07
8.86866e-07
8.8799e-07
8.89154e-07
8.90358e-07
8.916e-07
8.92878e-07
8.94191e-07
8.95534e-07
8.96906e-07
8.98303e-07
8.99722e-07
9.0116e-07
9.02614e-07
9.04083e-07
9.05564e-07
9.07055e-07
9.08554e-07
9.10059e-07
9.1157e-07
9.13084e-07
9.14602e-07
9.16121e-07
9.1764e-07
9.19158e-07
9.20675e-07
9.22189e-07
9.2364e-07
9.24716e-07
9.24912e-07
9.23892e-07
9.21889e-07
9.19171e-07
9.15946e-07
9.12297e-07
9.08408e-07
9.04866e-07
9.02629e-07
9.02507e-07
9.04687e-07
9.09414e-07
9.1604e-07
9.29267e-07
9.3914e-07
9.96443e-07
1.00928e-06
7.30095e-07
1.89112e-07
9.12746e-07
6.97642e-07
3.22624e-07
1.93409e-07
9.46175e-07
9.06575e-07
8.82776e-07
8.72235e-07
8.71016e-07
8.72409e-07
8.72961e-07
8.7277e-07
8.72491e-07
8.723e-07
8.72159e-07
8.72035e-07
8.71926e-07
8.71835e-07
8.71763e-07
8.71709e-07
8.71675e-07
8.7166e-07
8.71666e-07
8.71694e-07
8.71744e-07
8.71817e-07
8.71914e-07
8.72037e-07
8.72186e-07
8.72362e-07
8.72567e-07
8.72801e-07
8.73067e-07
8.73364e-07
8.73694e-07
8.74058e-07
8.74457e-07
8.74892e-07
8.75365e-07
8.75875e-07
8.76424e-07
8.77013e-07
8.77642e-07
8.78312e-07
8.79024e-07
8.79778e-07
8.80574e-07
8.81412e-07
8.82293e-07
8.83218e-07
8.84184e-07
8.85193e-07
8.86244e-07
8.87336e-07
8.88469e-07
8.89642e-07
8.90854e-07
8.92102e-07
8.93385e-07
8.94702e-07
8.96047e-07
8.97418e-07
8.98813e-07
9.00227e-07
9.0166e-07
9.03107e-07
9.04568e-07
9.06041e-07
9.07523e-07
9.09015e-07
9.10511e-07
9.12015e-07
9.13521e-07
9.1503e-07
9.1654e-07
9.18051e-07
9.19562e-07
9.21069e-07
9.22495e-07
9.23494e-07
9.23513e-07
9.22477e-07
9.20518e-07
9.17865e-07
9.14722e-07
9.11179e-07
9.07375e-07
9.03785e-07
9.01297e-07
9.00795e-07
9.0264e-07
9.07117e-07
9.13909e-07
9.26953e-07
9.39103e-07
9.99615e-07
1.01736e-06
4.89555e-07
1.64903e-07
9.12829e-07
5.1302e-07
6.78753e-07
3.36949e-06
9.55556e-07
9.12639e-07
8.85749e-07
8.7317e-07
8.71088e-07
8.72507e-07
8.73251e-07
8.73112e-07
8.72809e-07
8.72593e-07
8.72436e-07
8.72299e-07
8.72177e-07
8.72072e-07
8.71985e-07
8.71917e-07
8.71867e-07
8.71836e-07
8.71826e-07
8.71836e-07
8.71868e-07
8.71923e-07
8.72002e-07
8.72105e-07
8.72234e-07
8.72389e-07
8.72571e-07
8.72783e-07
8.73025e-07
8.73298e-07
8.73603e-07
8.73942e-07
8.74314e-07
8.74722e-07
8.75167e-07
8.75649e-07
8.76168e-07
8.76727e-07
8.77325e-07
8.77964e-07
8.78644e-07
8.79366e-07
8.8013e-07
8.80935e-07
8.81783e-07
8.82674e-07
8.83607e-07
8.84582e-07
8.856e-07
8.86659e-07
8.87758e-07
8.88898e-07
8.90077e-07
8.91293e-07
8.92545e-07
8.93831e-07
8.95147e-07
8.9649e-07
8.97859e-07
8.99247e-07
9.00655e-07
9.0208e-07
9.0352e-07
9.04972e-07
9.06435e-07
9.0791e-07
9.09391e-07
9.10879e-07
9.12373e-07
9.1387e-07
9.1537e-07
9.16872e-07
9.18374e-07
9.19869e-07
9.21259e-07
9.22108e-07
9.2205e-07
9.20972e-07
9.19009e-07
9.1639e-07
9.13318e-07
9.09883e-07
9.06181e-07
9.0258e-07
8.99872e-07
8.98986e-07
9.00474e-07
9.04675e-07
9.11612e-07
9.24215e-07
9.39431e-07
9.96896e-07
1.02846e-06
3.68236e-07
1.48637e-07
9.12816e-07
5.46147e-07
1.55903e-06
1.51963e-06
9.56822e-07
9.17658e-07
8.89168e-07
8.74524e-07
8.71252e-07
8.72567e-07
8.73523e-07
8.73466e-07
8.73144e-07
8.72899e-07
8.72725e-07
8.72575e-07
8.72439e-07
8.7232e-07
8.72217e-07
8.72134e-07
8.72068e-07
8.72021e-07
8.71994e-07
8.71987e-07
8.72001e-07
8.72037e-07
8.72096e-07
8.72179e-07
8.72286e-07
8.7242e-07
8.7258e-07
8.72769e-07
8.72986e-07
8.73235e-07
8.73514e-07
8.73826e-07
8.74172e-07
8.74552e-07
8.74967e-07
8.75419e-07
8.75908e-07
8.76436e-07
8.77002e-07
8.77609e-07
8.78255e-07
8.78943e-07
8.79672e-07
8.80443e-07
8.81256e-07
8.82111e-07
8.83009e-07
8.83948e-07
8.8493e-07
8.85954e-07
8.87018e-07
8.88123e-07
8.89266e-07
8.90448e-07
8.91667e-07
8.92919e-07
8.94203e-07
8.95515e-07
8.96853e-07
8.98215e-07
8.99596e-07
9.00995e-07
9.0241e-07
9.0384e-07
9.05282e-07
9.06735e-07
9.08199e-07
9.09669e-07
9.11146e-07
9.12628e-07
9.14113e-07
9.15603e-07
9.17092e-07
9.18568e-07
9.19877e-07
9.20626e-07
9.20454e-07
9.19298e-07
9.17317e-07
9.14729e-07
9.11735e-07
9.08421e-07
9.04852e-07
9.01289e-07
8.98407e-07
8.97142e-07
8.98228e-07
9.02121e-07
9.09126e-07
9.21343e-07
9.39248e-07
9.89983e-07
1.04066e-06
3.4153e-07
1.5918e-07
9.12828e-07
8.04233e-07
9.11081e-07
2.08632e-09
9.70037e-07
9.2524e-07
8.93209e-07
8.76073e-07
8.71465e-07
8.72598e-07
8.7378e-07
8.73835e-07
8.73501e-07
8.73224e-07
8.7303e-07
8.72867e-07
8.72717e-07
8.72582e-07
8.72465e-07
8.72365e-07
8.72283e-07
8.72219e-07
8.72175e-07
8.7215e-07
8.72145e-07
8.72162e-07
8.72201e-07
8.72263e-07
8.72349e-07
8.72461e-07
8.72598e-07
8.72763e-07
8.72956e-07
8.73178e-07
8.73431e-07
8.73716e-07
8.74033e-07
8.74384e-07
8.74769e-07
8.7519e-07
8.75648e-07
8.76143e-07
8.76676e-07
8.77248e-07
8.7786e-07
8.78511e-07
8.79204e-07
8.79938e-07
8.80713e-07
8.81531e-07
8.8239e-07
8.83291e-07
8.84234e-07
8.85219e-07
8.86244e-07
8.87311e-07
8.88415e-07
8.8956e-07
8.9074e-07
8.91956e-07
8.93204e-07
8.94483e-07
8.95788e-07
8.97117e-07
8.98467e-07
8.99837e-07
9.01224e-07
9.02626e-07
9.04043e-07
9.05471e-07
9.06912e-07
9.08361e-07
9.09817e-07
9.11279e-07
9.12745e-07
9.14218e-07
9.1569e-07
9.17137e-07
9.18363e-07
9.18968e-07
9.18663e-07
9.17435e-07
9.15457e-07
9.12936e-07
9.10045e-07
9.06869e-07
9.03444e-07
8.99943e-07
8.96927e-07
8.95314e-07
8.95984e-07
8.99553e-07
9.06522e-07
9.18579e-07
9.37951e-07
9.83407e-07
1.04721e-06
3.90554e-07
1.93879e-07
9.12937e-07
1.26297e-06
8.21137e-07
5.30221e-07
9.77215e-07
9.28876e-07
8.96887e-07
8.78171e-07
8.71992e-07
8.72644e-07
8.74007e-07
8.74218e-07
8.73891e-07
8.73579e-07
8.73361e-07
8.73183e-07
8.73019e-07
8.72869e-07
8.72736e-07
8.7262e-07
8.72521e-07
8.7244e-07
8.72378e-07
8.72334e-07
8.7231e-07
8.72308e-07
8.72326e-07
8.72367e-07
8.7243e-07
8.72519e-07
8.72633e-07
8.72772e-07
8.72939e-07
8.73135e-07
8.7336e-07
8.73616e-07
8.73903e-07
8.74223e-07
8.74577e-07
8.74965e-07
8.75389e-07
8.75848e-07
8.76346e-07
8.76881e-07
8.77455e-07
8.78068e-07
8.78722e-07
8.79416e-07
8.8015e-07
8.80926e-07
8.81743e-07
8.82601e-07
8.83501e-07
8.84441e-07
8.85424e-07
8.86447e-07
8.87508e-07
8.88609e-07
8.89747e-07
8.90921e-07
8.92129e-07
8.93367e-07
8.94633e-07
8.95927e-07
8.97241e-07
8.98577e-07
8.99932e-07
9.01303e-07
9.0269e-07
9.04091e-07
9.05503e-07
9.06926e-07
9.0836e-07
9.09801e-07
9.11247e-07
9.12702e-07
9.14157e-07
9.15573e-07
9.16715e-07
9.17205e-07
9.16806e-07
9.15548e-07
9.13598e-07
9.1115e-07
9.08361e-07
9.05309e-07
9.0202e-07
8.98598e-07
8.95504e-07
8.93618e-07
8.9391e-07
8.97148e-07
9.03974e-07
9.15984e-07
9.35606e-07
9.78942e-07
1.04533e-06
4.63924e-07
2.57651e-07
9.12965e-07
2.19042e-07
4.18907e-07
4.04822e-07
9.95361e-07
9.36015e-07
9.01987e-07
8.80871e-07
8.72661e-07
8.72623e-07
8.74174e-07
8.74598e-07
8.743e-07
8.73949e-07
8.73702e-07
8.73506e-07
8.73327e-07
8.73161e-07
8.73011e-07
8.72877e-07
8.7276e-07
8.7266e-07
8.72578e-07
8.72515e-07
8.72471e-07
8.72446e-07
8.72442e-07
8.7246e-07
8.725e-07
8.72564e-07
8.72652e-07
8.72765e-07
8.72904e-07
8.73071e-07
8.73266e-07
8.73491e-07
8.73746e-07
8.74032e-07
8.74351e-07
8.74704e-07
8.7509e-07
8.75512e-07
8.7597e-07
8.76466e-07
8.76998e-07
8.7757e-07
8.78181e-07
8.78832e-07
8.79522e-07
8.80253e-07
8.81024e-07
8.81835e-07
8.82688e-07
8.83581e-07
8.84515e-07
8.8549e-07
8.86505e-07
8.87559e-07
8.88652e-07
8.8978e-07
8.90945e-07
8.92141e-07
8.93368e-07
8.94622e-07
8.95899e-07
8.97202e-07
8.98524e-07
8.99867e-07
9.01225e-07
9.02601e-07
9.03989e-07
9.05391e-07
9.06805e-07
9.08232e-07
9.09668e-07
9.11115e-07
9.12565e-07
9.13956e-07
9.15033e-07
9.15448e-07
9.14991e-07
9.13711e-07
9.11786e-07
9.09404e-07
9.06693e-07
9.03743e-07
9.00583e-07
8.97277e-07
8.94194e-07
8.92144e-07
8.92134e-07
8.95054e-07
9.01654e-07
9.13569e-07
9.32886e-07
9.75272e-07
1.03713e-06
5.16175e-07
3.40526e-07
9.12855e-07
5.34917e-07
5.83989e-07
3.24469e-07
1.02366e-06
9.49115e-07
9.0908e-07
8.8406e-07
8.7329e-07
8.72396e-07
8.74145e-07
8.74836e-07
8.74589e-07
8.74198e-07
8.73915e-07
8.73699e-07
8.73504e-07
8.7332e-07
8.73151e-07
8.72998e-07
8.72862e-07
8.72743e-07
8.72641e-07
8.72556e-07
8.7249e-07
8.72444e-07
8.72417e-07
8.72411e-07
8.72427e-07
8.72465e-07
8.72527e-07
8.72612e-07
8.72724e-07
8.72861e-07
8.73027e-07
8.7322e-07
8.73443e-07
8.73696e-07
8.73981e-07
8.74298e-07
8.74649e-07
8.75034e-07
8.75454e-07
8.7591e-07
8.76403e-07
8.76934e-07
8.77505e-07
8.78116e-07
8.78767e-07
8.79457e-07
8.80186e-07
8.80956e-07
8.81766e-07
8.82618e-07
8.83511e-07
8.84445e-07
8.8542e-07
8.86436e-07
8.8749e-07
8.88583e-07
8.89714e-07
8.90878e-07
8.92076e-07
8.93302e-07
8.94556e-07
8.95837e-07
8.97141e-07
8.98468e-07
8.99814e-07
9.01182e-07
9.02565e-07
9.03966e-07
9.05381e-07
9.06811e-07
9.08256e-07
9.09712e-07
9.11176e-07
9.12567e-07
9.13619e-07
9.14013e-07
9.13491e-07
9.1218e-07
9.10264e-07
9.07921e-07
9.05283e-07
9.02421e-07
8.99365e-07
8.96158e-07
8.93114e-07
8.90969e-07
8.90732e-07
8.93361e-07
8.99668e-07
9.11317e-07
9.30097e-07
9.71165e-07
1.02785e-06
5.53566e-07
4.19794e-07
9.12933e-07
3.4188e-06
1.07012e-07
1.60758e-06
1.03196e-06
9.51827e-07
9.1154e-07
8.85697e-07
8.73841e-07
8.72326e-07
8.74057e-07
8.74883e-07
8.7468e-07
8.74272e-07
8.73966e-07
8.73737e-07
8.7353e-07
8.73335e-07
8.73154e-07
8.72989e-07
8.7284e-07
8.72707e-07
8.72592e-07
8.72494e-07
8.72414e-07
8.72353e-07
8.72312e-07
8.72292e-07
8.72292e-07
8.72315e-07
8.72361e-07
8.7243e-07
8.72525e-07
8.72646e-07
8.72794e-07
8.72969e-07
8.73173e-07
8.73408e-07
8.73673e-07
8.73971e-07
8.74302e-07
8.74667e-07
8.75067e-07
8.75503e-07
8.75976e-07
8.76487e-07
8.77038e-07
8.77629e-07
8.78261e-07
8.78932e-07
8.79642e-07
8.80392e-07
8.81183e-07
8.82016e-07
8.8289e-07
8.83806e-07
8.84762e-07
8.8576e-07
8.86797e-07
8.87873e-07
8.88988e-07
8.90137e-07
8.9132e-07
8.92533e-07
8.93774e-07
8.95043e-07
8.96337e-07
8.9766e-07
8.99007e-07
9.00383e-07
9.01778e-07
9.03195e-07
9.04629e-07
9.06077e-07
9.07542e-07
9.09017e-07
9.105e-07
9.11918e-07
9.12954e-07
9.13293e-07
9.12835e-07
9.11549e-07
9.09649e-07
9.0731e-07
9.04676e-07
9.01818e-07
8.98764e-07
8.95544e-07
8.92455e-07
8.90201e-07
8.89784e-07
8.92173e-07
8.98175e-07
9.09442e-07
9.27558e-07
9.66578e-07
1.01943e-06
5.96935e-07
4.76043e-07
9.12819e-07
5.4782e-07
6.15105e-07
4.59227e-06
1.02622e-06
9.48938e-07
9.09114e-07
8.84059e-07
8.73275e-07
8.72368e-07
8.74111e-07
8.74799e-07
8.74549e-07
8.74153e-07
8.73865e-07
8.73644e-07
8.73442e-07
8.73253e-07
8.73078e-07
8.72918e-07
8.72776e-07
8.7265e-07
8.72541e-07
8.7245e-07
8.72377e-07
8.72323e-07
8.7229e-07
8.72277e-07
8.72286e-07
8.72318e-07
8.72373e-07
8.72453e-07
8.72558e-07
8.7269e-07
8.7285e-07
8.73038e-07
8.73256e-07
8.73504e-07
8.73784e-07
8.74097e-07
8.74444e-07
8.74826e-07
8.75244e-07
8.757e-07
8.76193e-07
8.76726e-07
8.77299e-07
8.77912e-07
8.78566e-07
8.7926e-07
8.79995e-07
8.80773e-07
8.81591e-07
8.82451e-07
8.83353e-07
8.84297e-07
8.8528e-07
8.86305e-07
8.87369e-07
8.88471e-07
8.8961e-07
8.90782e-07
8.91986e-07
8.93219e-07
8.94478e-07
8.95762e-07
8.97068e-07
8.984e-07
8.99755e-07
9.01133e-07
9.02527e-07
9.03938e-07
9.05361e-07
9.06795e-07
9.08238e-07
9.09686e-07
9.11138e-07
9.12526e-07
9.13546e-07
9.13869e-07
9.13343e-07
9.12025e-07
9.10123e-07
9.07784e-07
9.05125e-07
9.02206e-07
8.99043e-07
8.95696e-07
8.92478e-07
8.90096e-07
8.89525e-07
8.91713e-07
8.97432e-07
9.0826e-07
9.25561e-07
9.6224e-07
1.01142e-06
6.55264e-07
4.812e-07
9.13014e-07
3.08129e-07
7.11793e-09
5.03221e-07
9.92172e-07
9.36072e-07
9.02019e-07
8.80872e-07
8.72654e-07
8.72604e-07
8.7415e-07
8.7457e-07
8.74268e-07
8.73911e-07
8.73658e-07
8.73456e-07
8.7327e-07
8.73096e-07
8.72937e-07
8.72795e-07
8.7267e-07
8.72562e-07
8.72471e-07
8.72398e-07
8.72345e-07
8.72311e-07
8.72298e-07
8.72306e-07
8.72337e-07
8.72391e-07
8.72469e-07
8.72573e-07
8.72703e-07
8.72861e-07
8.73047e-07
8.73263e-07
8.73509e-07
8.73787e-07
8.74098e-07
8.74442e-07
8.74821e-07
8.75236e-07
8.75689e-07
8.7618e-07
8.7671e-07
8.7728e-07
8.77891e-07
8.78544e-07
8.79237e-07
8.79973e-07
8.8075e-07
8.81571e-07
8.82434e-07
8.83338e-07
8.84286e-07
8.85274e-07
8.86304e-07
8.87374e-07
8.88484e-07
8.89631e-07
8.90812e-07
8.92028e-07
8.93275e-07
8.94548e-07
8.95848e-07
8.97169e-07
8.9851e-07
8.99869e-07
9.01244e-07
9.02634e-07
9.04034e-07
9.05446e-07
9.06865e-07
9.0829e-07
9.09718e-07
9.11145e-07
9.12574e-07
9.13947e-07
9.15039e-07
9.15498e-07
9.14968e-07
9.13567e-07
9.11529e-07
9.09048e-07
9.06239e-07
9.03161e-07
8.99815e-07
8.96279e-07
8.92907e-07
8.9042e-07
8.89756e-07
8.91826e-07
8.97349e-07
9.07804e-07
9.24115e-07
9.58839e-07
1.00266e-06
7.27718e-07
4.75536e-07
9.12932e-07
1.15871e-06
7.06411e-07
4.721e-07
9.8147e-07
9.29108e-07
8.96867e-07
8.78185e-07
8.72e-07
8.72641e-07
8.74002e-07
8.7421e-07
8.73879e-07
8.73562e-07
8.73338e-07
8.73153e-07
8.72982e-07
8.72825e-07
8.72684e-07
8.7256e-07
8.72452e-07
8.72363e-07
8.72292e-07
8.72239e-07
8.72206e-07
8.72193e-07
8.72202e-07
8.72233e-07
8.72287e-07
8.72365e-07
8.72468e-07
8.72598e-07
8.72755e-07
8.72941e-07
8.73156e-07
8.73402e-07
8.73679e-07
8.73988e-07
8.74332e-07
8.74709e-07
8.75123e-07
8.75574e-07
8.76063e-07
8.76592e-07
8.77161e-07
8.77771e-07
8.78422e-07
8.79116e-07
8.79851e-07
8.80629e-07
8.81449e-07
8.82313e-07
8.8322e-07
8.8417e-07
8.85161e-07
8.86195e-07
8.87269e-07
8.88383e-07
8.89536e-07
8.90727e-07
8.91952e-07
8.93209e-07
8.94496e-07
8.95807e-07
8.97144e-07
8.98501e-07
8.99875e-07
9.01265e-07
9.02668e-07
9.04085e-07
9.0551e-07
9.06944e-07
9.08384e-07
9.09826e-07
9.11272e-07
9.12713e-07
9.14154e-07
9.15569e-07
9.1675e-07
9.17325e-07
9.17023e-07
9.15701e-07
9.13595e-07
9.10937e-07
9.07908e-07
9.04599e-07
9.01018e-07
8.97257e-07
8.93718e-07
8.91127e-07
8.90393e-07
8.92365e-07
8.97683e-07
9.0779e-07
9.23162e-07
9.56648e-07
9.91273e-07
8.26628e-07
4.76186e-07
9.12915e-07
3.98457e-07
1.19495e-06
6.25581e-07
9.75233e-07
9.25109e-07
8.93268e-07
8.76134e-07
8.71488e-07
8.7261e-07
8.73793e-07
8.73848e-07
8.7351e-07
8.73227e-07
8.73028e-07
8.72858e-07
8.72702e-07
8.72561e-07
8.72436e-07
8.72328e-07
8.72238e-07
8.72166e-07
8.72112e-07
8.72078e-07
8.72065e-07
8.72072e-07
8.72101e-07
8.72153e-07
8.7223e-07
8.72331e-07
8.72458e-07
8.72613e-07
8.72796e-07
8.73008e-07
8.73251e-07
8.73524e-07
8.73831e-07
8.74171e-07
8.74545e-07
8.74955e-07
8.75402e-07
8.75887e-07
8.76412e-07