/*--------------------------------*- C++ -*----------------------------------*\
  =========                 |
  \\      /  F ield         | OpenFOAM: The Open Source CFD Toolbox
   \\    /   O peration     | Website:  https://openfoam.org
    \\  /    A nd           | Version:  9
     \\/     M anipulation  |
\*---------------------------------------------------------------------------*/
FoamFile
{
    format      ascii;
    class       volScalarField;
    location    "750";
    object      omega;
}
// * * * * * * * * * * * * * * * * * * * * * * * * * * * * * * * * * * * * * //

dimensions      [0 0 -1 0 0 0 0];

internalField   nonuniform List<scalar> 
13446
(
36.0139
36.5682
2.56611
37.0937
1.51214
0.326743
2.5459
4.88966
37.5993
0.412475
0.018628
2.38665
4.75905
5.58866
38.0738
3.14953
0.0540035
2.20703
4.61435
5.52051
5.72871
38.5214
2.0053
0.238111
2.03833
4.46093
5.44213
5.67183
5.85067
6.10773
6.39834
6.70043
7.01366
7.34033
7.68158
8.03813
8.41077
8.80026
9.20745
9.63314
10.0781
10.5433
11.0294
11.5375
12.0683
12.6228
13.202
13.8067
14.4381
15.0969
15.7846
16.4994
38.9468
0.864352
0.270621
1.87769
4.30157
5.35705
5.60801
5.78033
6.03053
6.31714
6.61549
6.92469
7.24706
7.58382
7.93565
8.30336
8.68767
9.08945
9.50949
9.94858
10.4075
10.8873
11.3886
11.9124
12.4596
13.0312
13.6281
14.2512
14.9016
15.5801
16.2888
17.0223
17.787
85.0349
87.3941
89.8193
92.2778
94.7458
97.2236
99.7087
102.25
104.957
107.853
110.931
114.137
117.363
120.485
123.432
126.229
128.976
131.763
134.66
137.661
140.812
144.004
147.146
150.67
152.293
142.212
39.3519
3.62272
0.137353
1.71536
4.13419
5.26394
5.54103
5.70544
5.9466
6.22844
6.52294
6.82785
7.1456
7.47748
7.82421
8.18658
8.56535
8.96132
9.37524
9.80797
10.2603
10.7331
11.2271
11.7435
12.2828
12.8462
13.4346
14.0489
14.69
15.3591
16.0569
16.7853
17.546
18.3294
81.7772
84.1295
86.542
88.9863
91.4407
93.8999
96.3708
98.8565
101.41
104.122
107.017
110.085
113.274
116.495
119.636
122.609
125.436
128.215
131.034
133.976
137.042
140.307
143.636
147.007
150.764
152.288
145.757
39.7237
2.30977
0.251829
1.53391
3.9581
5.16333
5.47014
5.62798
5.85978
6.13648
6.42694
6.72738
7.04032
7.36716
7.70863
8.06548
8.43845
8.82834
9.23598
9.6621
10.1075
10.5732
11.0597
11.5682
12.0994
12.6544
13.234
13.839
14.4706
15.1298
15.8175
16.5346
17.2819
18.0629
18.871
19.7115
78.501
80.8449
83.2368
85.6535
88.084
90.5307
92.9868
95.4577
97.9443
100.504
103.216
106.11
109.166
112.337
115.551
118.707
121.713
124.571
127.379
130.233
133.225
136.361
139.74
143.212
146.844
150.875
152.283
150.082
40.0836
1.07069
0.198422
1.38279
3.77832
5.05424
5.39454
5.54755
5.76952
6.04056
6.32678
6.62259
6.93051
7.25209
7.58805
7.93915
8.3061
8.68969
9.09074
9.51
9.94826
10.4064
10.8852
11.3856
11.9083
12.4544
13.0248
13.6203
14.242
14.8908
15.5677
16.2737
17.0099
17.7771
18.5772
19.4122
20.2715
61.928
64.0106
66.1628
68.3711
70.6209
72.9005
75.2105
77.5492
79.9189
82.306
84.7131
87.1351
89.5767
92.0311
94.4968
96.9798
99.5412
102.252
105.145
108.185
111.348
114.558
117.722
120.752
123.643
126.48
129.369
132.406
135.61
139.107
142.73
146.66
151.014
152.274
155.683
40.4208
3.69232
0.146482
1.23054
3.59045
4.93703
5.31474
5.46432
5.67592
5.94083
6.22255
6.51364
6.81636
7.13246
7.46269
7.80782
8.16851
8.54559
8.93978
9.3519
9.78271
10.2331
10.7038
11.1957
11.7096
12.2465
12.8074
13.3929
14.0043
14.6423
15.3081
16.0026
16.7267
17.4817
18.2686
19.0877
19.9428
20.8276
21.7451
58.9596
61.0091
63.1228
65.287
67.4871
69.7203
71.9837
74.2793
76.6016
78.9528
81.3259
83.7245
86.1377
88.5679
91.0158
93.4805
95.9622
98.5284
101.236
104.116
107.145
110.294
113.499
116.676
119.728
122.656
125.519
128.434
131.516
134.783
138.4
142.18
146.444
151.194
152.233
162.063
40.7299
2.19312
0.146479
1.07043
3.39909
4.81144
5.22985
5.37822
5.57917
5.83741
6.11442
6.40059
6.6979
7.00829
7.33259
7.67151
8.02571
8.39604
8.78315
9.18787
9.61094
10.0533
10.5155
10.9987
11.5035
12.0308
12.5817
13.157
13.7576
14.3845
15.0387
15.7212
16.4329
17.1749
17.9483
18.7542
19.5932
20.4671
21.3783
22.3199
23.2954
46.7126
48.4883
50.2893
52.1422
54.0563
56.0266
58.045
60.1122
62.2195
64.3605
66.5382
68.7539
71.0016
73.2827
75.5935
77.9323
80.2927
82.6801
85.0865
87.5111
89.9528
92.4069
94.8858
97.4462
100.155
103.033
106.049
109.18
112.372
115.556
118.629
121.585
124.481
127.426
130.546
133.873
137.615
141.559
146.188
151.425
152.159
169.707
41.0259
0.721989
0.200363
0.933832
3.20161
4.67615
5.13992
5.28949
5.47944
5.73018
6.00223
6.28342
6.57517
6.87967
7.19782
7.53031
7.87782
8.24113
8.6209
9.01797
9.43304
9.86697
10.3206
10.7946
11.29
11.8075
12.3481
12.9127
13.5022
14.1175
14.7597
15.4297
16.1285
16.8571
17.6166
18.4079
19.2324
20.0907
20.9837
21.9134
22.8821
23.8822
24.9222
26.0054
27.1254
45.9267
47.6686
49.4538
51.2985
53.2014
55.1539
57.1511
59.1911
61.2719
63.3912
65.5509
67.7479
69.9791
72.243
74.5369
76.8621
79.2088
81.5833
83.978
86.3933
88.8261
91.2745
93.7513
96.3064
99.0145
101.884
104.888
108
111.178
114.358
117.453
120.441
123.366
126.34
129.497
132.887
136.744
140.843
145.888
151.716
152.131
179.687
41.2978
2.98644
0.242185
0.783732
2.99233
4.53142
5.04481
5.19799
5.37681
5.61946
5.88628
6.16222
6.44823
6.74666
7.05845
7.38429
7.72486
8.0809
8.45311
8.84228
9.24909
9.67439
10.119
10.5836
11.0692
11.5765
12.1065
12.66
13.238
13.8415
14.4712
15.1283
15.8136
16.5284
17.2735
18.0499
18.8589
19.7011
20.5781
21.4905
22.4392
23.4263
24.4526
25.518
26.6249
27.767
28.9466
45.0802
46.7979
48.5758
50.4109
52.2961
54.2265
56.2002
58.2179
60.2777
62.3773
64.5173
66.6936
68.9053
71.1519
73.4299
75.7374
78.0718
80.4316
82.8119
85.2175
87.6407
90.08
92.5487
95.1034
97.8135
100.671
103.653
106.742
109.903
113.084
116.198
119.217
122.169
125.168
128.359
131.795
135.778
140.027
145.54
152.053
152.327
190.099
41.5528
1.26084
0.0171579
0.64803
2.78417
4.37761
4.94354
5.10361
5.27141
5.50516
5.76637
6.03695
6.31716
6.60933
6.91458
7.23355
7.56698
7.9155
8.27988
8.66089
9.05917
9.47556
9.91085
10.3658
10.8413
11.3381
11.8571
12.3992
12.9653
13.5563
14.1732
14.8169
15.4885
16.1889
16.919
17.68
18.473
19.2988
20.1586
21.0534
21.9843
22.9521
23.958
25.0031
26.0879
27.2144
28.3849
29.5914
30.841
32.1372
33.4813
34.8713
36.3075
37.79
39.3193
40.8954
42.5196
44.1912
45.9137
47.6844
49.5001
51.36
53.2653
55.2143
57.2083
59.2443
61.3213
63.4391
65.5945
67.7868
70.0122
72.2704
74.5596
76.878
79.2219
81.5915
83.983
86.3926
88.8215
91.2837
93.8391
96.5347
99.3781
102.342
105.409
108.55
111.726
114.857
117.9
120.883
123.903
127.125
130.6
134.709
139.084
145.144
152.416
152.859
202.455
41.7871
3.31736
0.295851
0.514387
2.57101
4.21455
4.8358
5.0062
5.1634
5.38766
5.6428
5.90792
6.18205
6.46775
6.76622
7.07813
7.40418
7.74499
8.10133
8.47389
8.86338
9.27057
9.69627
10.1413
10.6063
11.0923
11.6
12.1303
12.6842
13.2624
13.866
14.496
15.1532
15.8386
16.5534
17.2984
18.0749
18.8836
19.7257
20.6022
21.5142
22.4626
23.4486
24.4731
25.5371
26.6417
27.787
28.9755
30.2077
31.4832
32.8033
34.1683
35.579
37.0357
38.5396
40.0901
41.6887
43.3348
45.0272
46.7661
48.5522
50.3844
52.2634
54.1876
56.1557
58.1659
60.2187
62.3118
64.4439
66.6135
68.817
71.055
73.3264
75.6273
77.9532
80.3057
82.6814
85.0801
87.4988
89.9528
92.4984
95.1829
98.0091
100.956
104.001
107.125
110.29
113.43
116.494
119.503
122.542
125.789
129.294
133.529
137.999
144.718
152.783
154.037
216.908
42.0036
1.37353
0.228304
0.387942
2.35699
4.04183
4.72111
4.90555
5.05278
5.26683
5.51541
5.77486
6.04284
6.32195
6.61348
6.91816
7.23658
7.56945
7.91747
8.28137
8.66184
9.05963
9.47544
9.91012
10.3644
10.8392
11.3353
11.8534
12.3947
12.9598
13.5497
14.1654
14.8079
15.478
16.1769
16.9055
17.6648
18.4557
19.2795
20.1371
21.0296
21.9579
22.9232
23.9262
24.9682
26.0501
27.1729
28.3371
29.5438
30.7936
32.0878
33.4272
34.8119
36.2425
37.7192
39.2427
40.8132
42.431
44.0959
45.8076
47.5667
49.3716
51.2226
53.1194
55.0592
57.0436
59.0699
61.1374
63.244
65.3902
67.5721
69.7874
72.0378
74.3165
76.6237
78.9581
81.3164
83.6971
86.1043
88.547
91.0849
93.7589
96.5668
99.4921
102.512
105.615
108.768
111.909
114.985
118.009
121.067
124.337
127.871
132.233
136.75
144.262
153.121
156.025
234.955
42.2009
3.12806
0.217096
0.269387
2.13401
3.8573
4.59917
4.80174
4.93991
5.14296
5.38452
5.63799
5.89975
6.17204
6.45642
6.75363
7.06426
7.389
7.72849
8.08344
8.45459
8.84268
9.24837
9.67249
10.1158
10.579
11.0631
11.5688
12.097
12.6485
13.2243
13.8255
14.4527
15.107
15.7894
16.501
17.2426
18.0154
18.8203
19.6584
20.5307
21.4382
22.3819
23.3628
24.3821
25.4405
26.5392
27.6786
28.8604
30.0848
31.3527
32.665
34.0223
35.4248
36.8733
38.3683
39.91
41.4987
43.1345
44.8164
46.5457
48.3213
50.1424
52.0108
53.9213
55.8775
57.8754
59.9162
61.9966
64.1146
66.27
68.4609
70.6868
72.9418
75.2287
77.5428
79.8835
82.2445
84.6336
87.065
89.5916
92.25
95.0395
97.9431
100.941
104.018
107.149
110.281
113.369
116.411
119.488
122.768
126.313
130.801
135.334
143.804
153.364
159.264
258.165
42.3811
0.786426
0.130905
0.146954
1.90549
3.66154
4.46916
4.69451
4.8247
5.01618
5.25008
5.4975
5.75281
6.0181
6.29513
6.58467
6.88729
7.20366
7.53442
7.88023
8.24184
8.61993
9.01517
9.42843
9.86038
10.3118
10.7835
11.2764
11.7912
12.3288
12.8902
13.4763
14.0878
14.7259
15.3914
16.0854
16.8089
17.5629
18.3483
19.1662
20.0176
20.9036
21.8251
22.7832
23.7788
24.8131
25.887
27.0008
28.1563
29.3536
30.5941
31.8784
33.2071
34.5806
35.9998
37.4645
38.9762
40.5338
42.1385
43.7897
45.4879
47.2322
49.0227
50.8594
52.7393
54.6644
56.6318
58.6428
60.6937
62.7832
64.9106
67.0762
69.2756
71.5066
73.7699
76.0584
78.3766
80.7186
83.0885
85.5057
88.0195
90.6644
93.4343
96.3139
99.2841
102.329
105.432
108.548
111.64
114.695
117.783
121.07
124.624
129.211
133.738
143.317
153.374
164.376
292.539
42.5397
2.19978
0.114664
0.0288761
1.66762
3.45156
4.3301
4.58366
4.70746
4.88661
5.11209
5.3533
5.60203
5.86021
6.12972
6.41141
6.7058
7.01359
7.33537
7.67181
8.02363
8.39149
8.77606
9.17817
9.59844
10.0378
10.4968
10.9765
11.4775
12.0009
12.5474
13.1179
13.7133
14.3347
14.9829
15.6589
16.3637
17.0982
17.8636
18.6607
19.4907
20.3544
21.253
22.1875
23.1587
24.1679
25.2159
26.3033
27.4318
28.6012
29.8133
31.0685
32.3672
33.7103
35.0985
36.5324
38.0122
39.5379
41.1101
42.7283
44.3937
46.1047
47.8624
49.6658
51.5127
53.4058
55.3411
57.32
59.34
61.3987
63.4969
65.6325
67.8023
70.0058
72.2411
74.5057
76.7999
79.1182
81.466
83.8653
86.3623
88.9888
91.7401
94.5938
97.5296
100.532
103.599
106.698
109.789
112.855
115.947
119.23
122.784
127.427
131.991
142.681
152.988
171.934
348.762
42.6877
3.6195
0.299821
0.105408
1.45457
3.22963
4.18056
4.46817
4.58808
4.75447
4.97095
5.20555
5.44764
5.6985
5.96029
6.23392
6.51991
6.8189
7.1315
7.45836
7.80013
8.1575
8.53114
8.92183
9.33016
9.75707
10.2031
10.6693
11.1562
11.665
12.1961
12.7508
13.3298
13.9339
14.5643
15.2217
15.9072
16.6218
17.3665
18.1422
18.95
19.7909
20.6658
21.576
22.5219
23.5053
24.5266
25.5865
26.6867
27.8274
29.0097
30.2344
31.5025
32.8144
34.1701
35.5715
37.018
38.5101
40.0486
41.6328
43.2634
44.9395
46.662
48.4305
50.2426
52.1007
54.0022
55.9463
57.9327
59.958
62.0237
64.1265
66.2649
68.4386
70.6447
72.881
75.1465
77.439
79.7642
82.1403
84.6213
87.2283
89.9552
92.7722
95.6687
98.6295
101.658
104.727
107.807
110.872
113.963
117.236
120.786
125.401
130.117
141.57
152.239
182.385
442.25
42.8139
0.648571
0.11775
0.121614
1.24311
2.99665
4.01937
4.34777
4.46666
4.61992
4.82653
5.05414
5.28946
5.53296
5.7869
6.0523
6.32971
6.61972
6.9229
7.23996
7.57146
7.91812
8.28057
8.65953
9.0557
9.46986
9.90265
10.3549
10.8275
11.3211
11.8367
12.375
12.937
13.5236
14.1356
14.7741
15.4398
16.1339
16.8574
17.6111
18.3961
19.2134
20.064
20.9489
21.8689
22.8255
23.8193
24.8508
25.9219
27.0328
28.1846
29.3778
30.6138
31.8926
33.2149
34.5822
35.994
37.4506
38.9533
40.502
42.0963
43.7356
45.422
47.1526
48.9284
50.7486
52.6131
54.5202
56.4697
58.4607
60.49
62.5595
64.6645
66.8039
68.9769
71.1812
73.4158
75.6781
77.9758
80.3314
82.7942
85.3745
88.0637
90.8393
93.693
96.6098
99.5937
102.628
105.685
108.741
111.817
115.059
118.601
123.101
128.134
139.456
151.636
193.019
580.806
42.9205
1.42993
0.0906519
0.011201
1.04491
2.74908
3.84487
4.22184
4.34333
4.48334
4.67912
4.89936
5.12781
5.36383
5.60973
5.8667
6.13533
6.41615
6.70973
7.01676
7.33777
7.67347
8.02454
8.39155
8.77524
9.17636
9.59558
10.0337
10.4916
10.9698
11.4693
11.991
12.5356
13.1041
13.6974
14.3163
14.9619
15.635
16.3366
17.0677
17.8293
18.6224
19.4479
20.3069
21.2003
22.1292
23.0945
24.0968
25.1378
26.2177
27.3377
28.4985
29.7011
30.9462
32.2337
33.5652
34.9406
36.3606
37.8257
39.3363
40.8924
42.4931
44.1406
45.8319
47.5683
49.3491
51.1742
53.0422
54.9517
56.9048
58.8955
60.9259
62.9946
65.0975
67.234
69.404
71.6033
73.8313
76.0971
78.4319
80.8634
83.4121
86.063
88.7972
91.6035
94.4674
97.3971
100.383
103.402
106.435
109.499
112.707
116.23
120.566
126.003
136.08
151.969
196.423
669.579
43.0134
1.97094
0.0719989
0.0223765
0.865162
2.49436
3.65571
4.08873
4.21788
4.34506
4.52893
4.74126
4.96272
5.19115
5.42886
5.67725
5.93692
6.20839
6.49217
6.78897
7.09932
7.42382
7.76319
8.11802
8.489
8.8768
9.2822
9.70588
10.1486
10.6112
11.0943
11.5989
12.1258
12.6758
13.2499
13.8489
14.4737
15.1252
15.8045
16.5125
17.2501
18.0183
18.818
19.6504
20.5163
21.4168
22.3527
23.325
24.3347
25.3826
26.4699
27.5967
28.7647
29.9741
31.2255
32.5203
33.8578
35.2394
36.6656
38.136
39.6514
41.2115
42.817
44.4674
46.1618
47.9008
49.6832
51.5094
53.3769
55.286
57.2366
59.2244
61.2504
63.3127
65.4085
67.5393
69.6991
71.8896
74.1227
76.4253
78.8277
81.3407
83.9509
86.6352
89.3885
92.1982
95.0722
98.0091
100.99
103.997
107.042
110.218
113.717
117.901
123.642
132.069
152.914
183.104
628.915
43.0874
2.20298
0.15402
0.0519739
0.692074
2.23155
3.45079
3.94728
4.08997
4.20518
4.37614
4.57987
4.7941
5.01486
5.24427
5.48394
5.73446
5.99639
6.2702
6.55654
6.85596
7.16907
7.49652
7.83889
8.19689
8.57115
8.96237
9.37129
9.79856
10.2451
10.7115
11.1986
11.7073
12.2384
12.7928
13.3713
13.9748
14.6043
15.2607
15.9448
16.6577
17.4003
18.1736
18.9785
19.8161
20.6871
21.5928
22.534
23.5113
24.5262
25.579
26.6709
27.8028
28.9752
30.1889
31.4447
32.7426
34.084
35.4687
36.8973
38.3699
39.8874
41.4488
43.055
44.7042
46.3981
48.1348
49.9146
51.7375
53.5998
55.5044
57.4471
59.4276
61.4439
63.4959
65.5845
67.7011
69.8522
72.0492
74.3214
76.6963
79.1734
81.7415
84.3825
87.0868
89.8458
92.669
95.5608
98.5116
101.506
104.547
107.713
111.195
115.287
121.087
128.433
152.036
159.717
578.583
43.1451
2.38066
0.232006
0.036223
0.542847
1.96741
3.22941
3.79479
3.95846
4.06341
4.22048
4.41473
4.62154
4.83452
5.05545
5.28613
5.52728
5.77941
6.04302
6.31865
6.6069
6.90831
7.22353
7.55313
7.89778
8.25813
8.6348
9.02854
9.43997
9.86995
10.3191
10.7883
11.2783
11.79
12.3241
12.8814
13.463
14.0697
14.7023
15.3618
16.0491
16.7652
17.511
18.2875
19.0956
19.9362
20.8104
21.7191
22.6629
23.6433
24.6606
25.7159
26.8104
27.944
29.1186
30.3342
31.591
32.8904
34.2324
35.6174
37.046
38.5181
40.034
41.5948
43.1978
44.8456
46.5358
48.2684
50.0441
51.8613
53.7186
55.615
57.551
59.5237
61.5319
63.5788
65.6572
67.7739
69.942
72.1931
74.5424
76.993
79.5298
82.1377
84.8121
87.5416
90.3393
93.2058
96.1422
99.1395
102.194
105.366
108.829
112.864
118.51
125.53
147.89
147.345
525.162
43.1862
2.83905
0.0796907
0.0472561
0.401016
1.69513
2.98708
3.62854
3.82234
3.91964
4.06173
4.24539
4.4444
4.64953
4.86184
5.08334
5.3149
5.55701
5.81016
6.07483
6.35165
6.64109
6.94381
7.26037
7.59137
7.93748
8.29926
8.67746
9.07271
9.48577
9.91734
10.3681
10.839
11.3307
11.844
12.3797
12.9388
13.5221
14.1304
14.7647
15.4258
16.1147
16.8323
17.5795
18.3573
19.1667
20.0084
20.8838
21.7936
22.7392
23.7208
24.7399
25.7971
26.8931
28.029
29.2053
30.4226
31.6817
32.9832
34.3272
35.715
37.1456
38.6205
40.1393
41.7012
43.3082
44.9582
46.6519
48.3872
50.1669
51.9859
53.8466
55.7468
57.6879
59.6659
61.6854
63.7406
65.8361
67.9919
70.2321
72.5727
75.0112
77.5354
80.1322
82.7917
85.5079
88.2918
91.1442
94.0665
97.056
100.11
103.279
106.715
110.677
116.061
122.928
142.303
141.451
468.621
43.2139
3.79757
0.286702
0.00538971
0.280277
1.43013
2.73598
3.45686
3.68938
3.78289
3.91
4.08262
4.274
4.47181
4.67609
4.88897
5.11154
5.34428
5.58763
5.84211
6.10826
6.38659
6.6777
6.98216
7.30053
7.63347
7.98155
8.34546
8.72586
9.12344
9.53889
9.97294
10.4264
10.9
11.3945
11.9108
12.4496
13.0119
13.5984
14.2102
14.848
15.5128
16.2056
16.9271
17.6784
18.4604
19.2742
20.1208
21.0018
21.9181
22.8703
23.86
24.8871
25.9536
27.0596
28.206
29.3938
30.6237
31.8961
33.2113
34.5709
35.974
37.4225
38.9148
40.4521
42.0349
43.6621
45.335
47.0505
48.8124
50.6162
52.4643
54.3533
56.2833
58.2544
60.2655
62.3167
64.4079
66.5633
68.7983
71.1403
73.5743
76.0869
78.6671
81.3048
83.9916
86.7408
89.5523
92.4362
95.3855
98.4019
101.529
104.896
108.736
113.797
120.408
136.718
137.927
414.562
43.2194
1.117
0.0186398
0.0152047
0.228857
1.30274
2.6065
3.3666
3.62215
3.71581
3.83549
4.00217
4.18969
4.38405
4.58459
4.79345
5.01186
5.24029
5.47922
5.72912
5.99055
6.26401
6.5501
6.84938
7.1624
7.4898
7.83222
8.19031
8.56474
8.95619
9.36534
9.79298
10.2399
10.7067
11.1944
11.7038
12.2356
12.7907
13.37
13.9745
14.605
15.2624
15.9477
16.6619
17.4056
18.1803
18.9867
19.826
20.6997
21.6086
22.5537
23.5359
24.5559
25.6151
26.7137
27.8531
29.0334
30.256
31.5208
32.8282
34.1798
35.5746
37.014
38.4965
40.0232
41.5946
43.2097
44.8731
46.5835
48.3442
50.1501
52.0015
53.8943
55.826
57.7996
59.8079
61.8545
63.9368
66.0799
68.2984
70.6091
73.0071
75.4793
78.0121
80.5996
83.2285
85.9151
88.6568
91.4695
94.3379
97.2705
100.297
103.528
107.185
111.881
118.081
131.834
135.285
362.846
43.2134
3.77111
0.270795
0.00489234
0.278953
1.42857
2.73451
3.45581
3.68862
3.78206
3.90914
4.08172
4.2732
4.47122
4.6758
4.88909
5.11218
5.34554
5.58967
5.84505
6.11226
6.39181
6.68432
6.99035
7.31051
7.64542
7.99577
8.36219
8.74541
9.14611
9.56503
10.0029
10.4606
10.9389
11.4386
11.9605
12.5056
13.0747
13.6688
14.2887
14.9354
15.6099
16.3131
17.046
17.8095
18.6049
19.4327
20.2944
21.1905
22.1225
23.0908
24.0969
25.1412
26.2245
27.3478
28.5119
29.7167
30.9638
32.253
33.5846
34.9593
36.3765
37.8374
39.3401
40.8859
42.4734
44.1027
45.7776
47.4972
49.2623
51.0681
52.9147
54.7968
56.7132
58.662
60.6381
62.6441
64.6729
66.751
68.8909
71.11
73.4043
75.7899
78.2706
80.8138
83.3986
86.0232
88.6939
91.4187
94.1889
97.0009
99.8774
102.912
106.326
110.629
116.324
127.943
133.075
313.639
43.1845
2.6832
0.291323
0.0429581
0.401508
1.6945
2.98593
3.62767
3.82171
3.91902
4.06118
4.2449
4.44411
4.64954
4.86227
5.0843
5.31656
5.55949
5.81361
6.07943
6.35757
6.64856
6.95302
7.27154
7.60478
7.95335
8.31795
8.69928
9.09805
9.51499
9.95085
10.4065
10.8826
11.3801
11.8999
12.4427
13.0096
13.6014
14.2191
14.8636
15.536
16.237
16.9679
17.7295
18.5229
19.3491
20.2091
21.1038
22.034
23.0012
24.0055
25.0487
26.1311
27.2533
28.4169
29.622
30.8691
32.1586
33.4914
34.8675
36.2865
37.7497
39.2567
40.806
42.3996
44.034
45.7105
47.4272
49.1836
50.9779
52.8071
54.6709
56.5666
58.4901
60.4402
62.4099
64.4018
66.4072
68.4446
70.5303
72.6928
74.9225
77.2327
79.6192
82.0485
84.5021
86.9605
89.4477
92.031
94.7167
97.4355
100.177
103.025
106.201
110.116
115.305
125.056
131.905
274.999
43.1445
2.34299
0.168079
0.0463395
0.541493
1.9658
3.22829
3.79397
3.95785
4.06278
4.21989
4.41426
4.62131
4.8346
5.05593
5.28711
5.52895
5.78188
6.04643
6.32318
6.61272
6.91564
7.23258
7.56411
7.91095
8.27371
8.65314
9.0499
9.46481
9.89854
10.3519
10.8258
11.321
11.8383
12.3786
12.9429
13.5321
14.1471
14.7888
15.4583
16.1565
16.8844
17.6431
18.4335
19.2567
20.1135
21.0053
21.9328
22.8971
23.8986
24.9391
26.0189
27.1391
28.3004
29.5033
30.749
32.0373
33.369
34.7449
36.1648
37.6286
39.1367
40.689
42.284
43.9237
45.6051
47.328
49.0909
50.8926
52.7325
54.6061
56.513
58.4522
60.4173
62.4099
64.4201
66.4511
68.496
70.5659
72.6841
74.8727
77.1352
79.4497
81.7912
84.143
86.4912
88.8203
91.143
93.5367
95.9981
98.4731
100.958
103.553
106.5
110.139
115.125
123.796
133.021
248.657
43.0852
1.99458
0.0339363
0.0430786
0.689856
2.22936
3.44966
3.94654
4.08947
4.20457
4.37556
4.57947
4.79393
5.01499
5.2448
5.48494
5.73613
5.99883
6.2736
6.56105
6.86173
7.17631
7.50543
7.84971
8.20984
8.58647
8.98039
9.39227
9.82292
10.273
10.7436
11.2352
11.749
12.2856
12.8461
13.4313
14.0422
14.6797
15.3448
16.0386
16.7619
17.5159
18.3016
19.1199
19.9718
20.8586
21.781
22.7402
23.7371
24.7721
25.8472
26.9623
28.1189
29.3176
30.5584
31.8429
33.171
34.5432
35.9599
37.4215
38.9274
40.4778
42.0735
43.7116
45.3949
47.1197
48.8859
50.693
52.5386
54.4212
56.3383
58.2888
60.2707
62.2802
64.3121
66.366
68.4359
70.5209
72.6244
74.7752
76.9976
79.2915
81.6435
84.0329
86.4326
88.8348
91.2217
93.5936
95.9541
98.2652
100.531
102.79
105.172
107.937
111.435
116.487
124.718
135.285
229.692
43.0113
1.78361
0.00724126
0.0169251
0.863114
2.49337
3.65466
4.08801
4.21735
4.34451
4.52839
4.74092
4.96256
5.19128
5.42941
5.67833
5.93865
6.21092
6.49567
6.79355
7.10517
7.43115
7.77218
8.12891
8.50203
8.89222
9.30024
9.72688
10.1729
10.6391
11.1263
11.6354
12.1673
12.7228
13.3028
13.9084
14.5404
15.1999
15.8878
16.6052
17.3531
18.1324
18.9443
19.7898
20.6697
21.5854
22.5375
23.5273
24.5559
25.6236
26.7317
27.8813
29.0727
30.3069
31.5846
32.906
34.2722
35.6827
37.1387
38.6399
40.186
41.7773
43.4134
45.0928
46.8171
48.5831
50.3904
52.2392
54.1254
56.0479
58.0049
59.9954
62.016
64.0638
66.1326
68.2255
70.3313
72.4518
74.5852
76.7597
79.0085
81.3384
83.7265
86.1618
88.6107
91.0733
93.5254
95.9676
98.3793
100.726
103.017
105.293
107.7
110.475
113.93
118.936
126.45
137.586
214.702
42.9184
1.28724
0.0244693
0.00982853
1.04387
2.74805
3.84398
4.22124
4.3428
4.48282
4.67865
4.89905
5.12771
5.36402
5.61034
5.86788
6.13717
6.41881
6.71334
7.02147
7.3438
7.68093
8.03364
8.40254
8.78836
9.19184
9.6137
10.0548
10.5159
10.9978
11.5013
12.0275
12.577
13.1509
13.7502
14.3756
15.0283
15.7092
16.4194
17.1598
17.9316
18.7356
19.5731
20.4449
21.3521
22.2958
23.2769
24.2965
25.3555
26.4549
27.5953
28.7778
30.0029
31.2717
32.5847
33.9418
35.3444
36.7917
38.2848
39.8241
41.4085
43.0379
44.7123
46.4313
48.1931
49.9981
51.844
53.731
55.6545
57.6162
59.6102
61.6375
63.6926
65.7746
67.879
70.004
72.1422
74.2919
76.4537
78.6513
80.918
83.2717
85.6981
88.1763
90.6729
93.1873
95.6989
98.2007
100.664
103.058
105.389
107.708
110.166
112.997
116.447
121.444
128.29
139.592
201.862
42.8117
0.644071
0.106173
0.00180102
1.24351
2.99526
4.01836
4.34719
4.4662
4.61944
4.82619
5.05393
5.28949
5.53329
5.78762
6.05357
6.33166
6.62246
6.92661
7.24479
7.57757
7.92569
8.28982
8.67065
9.06893
9.48542
9.92087
10.3761
10.8519
11.3491
11.8687
12.4115
12.9783
13.5703
14.1882
14.8331
15.5059
16.2078
16.9397
17.7026
18.4975
19.3256
20.1879
21.0854
22.0191
22.99
23.9992
25.0479
26.1362
27.2662
28.4377
29.6519
30.9098
32.2117
33.5584
34.9502
36.3872
37.8705
39.3998
40.9743
42.5948
44.2607
45.9719
47.7283
49.5267
51.3676
53.2503
55.1727
57.1311
59.1275
61.1548
63.215
65.3034
67.4167
69.5527
71.7064
73.8743
76.0526
78.2391
80.457
82.7358
85.1127
87.5704
90.081
92.6268
95.1878
97.7548
100.309
102.813
105.244
107.604
109.957
112.456
115.338
118.782
123.764
130.037
141.311
191.56
42.6851
3.61804
0.298811
0.10483
1.45263
3.22843
4.17967
4.4676
4.58764
4.75394
4.97058
5.2053
5.44762
5.69886
5.9611
6.2353
6.52201
6.82178
7.13535
7.46332
7.80635
8.16519
8.54051
8.93308
9.34351
9.77271
10.2215
10.6905
11.1807
11.693
12.2281
12.7872
13.371
13.9805
14.6166
15.2805
15.973
16.6952
17.4482
18.233
19.0506
19.9021
20.7885
21.7109
22.6702
23.6675
24.704
25.7805
26.8977
28.0568
29.2584
30.5036
31.7927
33.1263
34.5056
35.9307
37.4012
38.918
40.4815
42.0901
43.7457
45.4462
47.1922
48.9827
50.8155
52.6905
54.607
56.5635
58.5545
60.5831
62.6426
64.7335
66.852
68.994
71.1575
73.3382
75.5325
77.7367
79.9461
82.1812
84.4723
86.8657
89.3439
91.8875
94.4729
97.0793
99.6956
102.296
104.831
107.289
109.663
112.051
114.586
117.504
120.946
125.894
131.682
142.728
182.118
42.5373
2.19719
0.11478
0.0331532
1.66833
3.45036
4.32923
4.58311
4.70704
4.8862
5.11184
5.35325
5.60224
5.86073
6.13068
6.41292
6.70802
7.01659
7.33935
7.67692
8.02998
8.39931
8.78555
9.18953
9.61189
10.0535
10.5152
10.9979
11.5021
12.029
12.5794
13.1543
13.7545
14.3811
15.0351
15.7174
16.4291
17.1712
17.9447
18.7508
19.5904
20.4646
21.3744
22.321
23.3052
24.3283
25.391
26.4944
27.6394
28.8268
30.0572
31.3323
32.6516
34.016
35.4264
36.8828
38.3852
39.9343
41.5303
43.1718
44.8604
46.5945
48.3732
50.1956
52.0616
53.9688
55.9165
57.9035
59.9251
61.9837
64.0725
66.1917
68.3375
70.5059
72.6945
74.8988
77.1174
79.3432
81.5737
83.8199
86.1272
88.5299
91.0299
93.6027
96.2199
98.8721
101.525
104.17
106.737
109.21
111.598
114.009
116.571
119.523
122.95
127.843
133.217
143.908
173.717
42.3779
0.783523
0.131318
0.154583
1.9055
3.66008
4.46836
4.69404
4.82437
5.01587
5.24984
5.4976
5.7531
6.01872
6.2962
6.58628
6.88959
7.20678
7.5385
7.88544
8.24834
8.6279
9.02481
9.43995
9.87396
10.3277
10.802
11.2977
11.8157
12.357
12.9223
13.5126
14.1289
14.7723
15.4436
16.1438
16.8741
17.6355
18.429
19.2556
20.1166
21.0128
21.9454
22.9155
23.9238
24.9717
26.0597
27.1894
28.3609
29.5759
30.8342
32.1379
33.4859
34.8799
36.3202
37.8066
39.34
40.9197
42.5467
44.2202
45.9392
47.7041
49.5139
51.367
53.2636
55.2014
57.1786
59.1948
61.2459
63.3306
65.4472
67.5912
69.7611
71.9531
74.1647
76.3916
78.6301
80.8749
83.1255
85.3842
87.7023
90.1131
92.6292
95.2258
97.8742
100.565
103.259
105.935
108.524
111.007
113.41
115.84
118.429
121.406
124.812
129.628
134.626
144.821
166.07
42.1976
3.12645
0.217095
0.271849
2.13361
3.85626
4.59848
4.80136
4.93959
5.14274
5.38441
5.63817
5.90012
6.17273
6.45757
6.75536
7.06669
7.39226
7.73272
8.08883
8.46129
8.85082
9.25816
9.68414
10.1295
10.595
11.0817
11.5903
12.1217
12.6768
13.2565
13.8618
14.4938
15.1533
15.8414
16.5591
17.3076
18.0877
18.9006
19.7473
20.629
21.5466
22.5012
23.4938
24.5256
25.5973
26.7102
27.865
29.0622
30.3034
31.5888
32.9196
34.2957
35.7185
37.187
38.7026
40.2649
41.8743
43.5309
45.2336
46.9827
48.7767
50.6163
52.4989
54.4234
56.3903
58.3934
60.438
62.5147
64.6251
66.768
68.9343
71.1276
73.3423
75.574
77.8191
80.0747
82.3374
84.6037
86.8775
89.1986
91.614
94.1452
96.762
99.4426
102.163
104.895
107.596
110.208
112.702
115.11
117.556
120.164
123.15
126.527
131.239
135.917
145.536
158.777
42.0005
1.3715
0.228106
0.388115
2.35615
4.04088
4.72045
4.90521
5.05255
5.26673
5.51539
5.77501
6.04328
6.32272
6.61473
6.92002
7.23916
7.57289
7.9219
8.2869
8.66867
9.06793
9.48538
9.92192
10.3784
10.8554
11.354
11.8751
12.4195
12.9882
13.5819
14.2019
14.849
15.5243
16.2288
16.9636
17.7295
18.5278
19.3595
20.2257
21.1274
22.0656
23.0416
24.056
25.1105
26.2053
27.3419
28.5209
29.7433
31.01
32.3213
33.6786
35.0812
36.5305
38.0264
39.5699
41.1606
42.7984
44.4828
46.214
47.9906
49.8124
51.6801
53.5904
55.5421
57.534
59.5644
61.6331
63.7345
65.8684
68.0328
70.2216
72.4363
74.6703
76.9208
79.1836
81.4572
83.736
86.0148
88.2987
90.6231
93.0387
95.5821
98.2178
100.926
103.675
106.442
109.165
111.784
114.28
116.702
119.164
121.788
124.781
128.12
132.709
137.097
146.093
153.965
41.7842
3.31596
0.295577
0.514281
2.56991
4.21356
4.83517
5.00587
5.16313
5.38747
5.64271
5.90804
6.18252
6.46862
6.7676
7.08016
7.40691
7.74859
8.10591
8.47958
8.87041
9.2791
9.70645
10.1533
10.6204
11.1087
11.619
12.1522
12.7092
13.291
13.8985
14.5326
15.1945
15.8851
16.6054
17.3566
18.1397
18.9555
19.8054
20.6903
21.6115
22.5698
23.5664
24.6021
25.6784
26.7957
27.9549
29.1573
30.4035
31.6946
33.031
34.4133
35.8418
37.3173
38.8394
40.4095
42.0264
43.6905
45.4021
47.1603
48.9642
50.8124
52.7048
54.6405
56.6182
58.6341
60.6909
62.7813
64.9079
67.0617
69.2474
71.4574
73.6899
75.9428
78.2102
80.4876
82.7755
85.0664
87.3567
89.651
91.9829
94.4032
96.9533
99.5976
102.328
105.106
107.899
110.642
113.275
115.773
118.196
120.662
123.298
126.285
129.585
134.038
138.157
146.537
149.9
41.5497
1.25859
0.0166054
0.644445
2.78282
4.37677
4.94297
5.10339
5.27128
5.50511
5.76643
6.03725
6.31777
6.61035
6.91611
7.23574
7.56987
7.91927
8.28466
8.66675
9.06638
9.48423
9.92121
10.3781
10.8556
11.3548
11.8763
12.4213
12.9906
13.5851
14.2059
14.8538
15.53
16.2354
16.9712
17.7383
18.5378
19.3707
20.2384
21.1415
22.0814
23.059
24.0755
25.1318
26.2288
27.3677
28.5492
29.774
31.0433
32.3579
33.7178
35.1242
36.5777
38.0777
39.6252
41.2205
42.8631
44.5529
46.2898
48.0724
49.9019
51.7756
53.6929
55.653
57.6544
59.6937
61.7722
63.8837
66.0319
68.2061
70.4116
72.6392
74.8901
77.1564
79.4384
81.7314
84.032
86.3364
88.6389
90.9411
93.2774
95.7015
98.2555
100.91
103.661
106.468
109.284
112.045
114.676
117.168
119.599
122.075
124.712
127.685
130.934
135.237
139.118
146.911
145.442
41.2955
2.96856
0.237024
0.781457
2.99094
4.53066
5.04435
5.19782
5.37669
5.61936
5.88637
6.16261
6.44899
6.74784
7.06015
7.38662
7.72793
8.08482
8.45804
8.84831
9.25651
9.68326
10.1295
10.5961
11.0838
11.5935
12.1261
12.6824
13.2636
13.8704
14.5041
15.1654
15.8554
16.5752
17.3259
18.1083
18.9238
19.7733
20.6578
21.5784
22.5366
23.5328
24.5685
25.6445
26.7618
27.9217
29.1241
30.3707
31.6621
32.9994
34.3821
35.8118
37.2885
38.8129
40.3845
42.0031
43.6701
45.384
47.1453
48.9522
50.8055
52.7029
54.643
56.6271
58.6505
60.7139
62.8109
64.9444
67.1111
69.3051
71.5269
73.7711
76.0386
78.3204
80.6164
82.9229
85.2317
87.5449
89.8555
92.1681
94.5066
96.9253
99.4873
102.156
104.922
107.756
110.598
113.367
115.998
118.487
120.916
123.392
126.027
128.98
132.175
136.332
139.999
147.226
142.224
41.0227
0.620693
0.159971
0.936605
3.19857
4.67519
5.13946
5.2893
5.47938
5.73018
6.00248
6.28392
6.57605
6.881
7.19967
7.53279
7.88105
8.24519
8.62601
9.02422
9.44068
9.87607
10.3314
10.8073
11.3048
11.8247
12.3679
12.9354
13.528
14.1468
14.793
15.4671
16.1705
16.9042
17.6692
18.4667
19.2976
20.163
21.0641
22.0017
22.9772
23.9915
25.0458
26.1409
27.2775
28.4572
29.68
30.9477
32.2602
33.619
35.024
36.4758
37.9751
39.5222
41.1165
42.7589
44.4487
46.1861
47.9698
49.7994
51.6751
53.5945
55.5573
57.5631
59.6073
61.6903
63.8079
65.961
68.1444
70.3586
72.5945
74.8554
77.1361
79.4308
81.738
84.0562
86.3765
88.6987
91.0186
93.3393
95.6717
98.0882
100.652
103.331
106.118
108.979
111.84
114.622
117.25