/*--------------------------------*- C++ -*----------------------------------*\
  =========                 |
  \\      /  F ield         | OpenFOAM: The Open Source CFD Toolbox
   \\    /   O peration     | Website:  https://openfoam.org
    \\  /    A nd           | Version:  9
     \\/     M anipulation  |
\*---------------------------------------------------------------------------*/
FoamFile
{
    format      ascii;
    class       volScalarField;
    location    "750";
    object      p;
}
// * * * * * * * * * * * * * * * * * * * * * * * * * * * * * * * * * * * * * //

dimensions      [0 2 -2 0 0 0 0];

internalField   nonuniform List<scalar> 
13446
(
0.00146375
0.00148167
0.00147621
0.0014993
0.00149426
0.00149248
0.00149267
0.00149344
0.00151661
0.00151198
0.0015106
0.00151131
0.00151277
0.00151529
0.00153358
0.00152936
0.00152837
0.00152959
0.00153173
0.00153505
0.00153978
0.00155019
0.00154637
0.00154577
0.00154749
0.0015503
0.00155439
0.00156003
0.0015672
0.00157592
0.0015863
0.00159842
0.00161239
0.00162832
0.00164634
0.00166661
0.00168928
0.00171454
0.0017426
0.00177371
0.00180811
0.0018461
0.00188804
0.00193429
0.00198527
0.00204147
0.00210342
0.0021717
0.00224699
0.00233002
0.0024216
0.00252263
0.0015664
0.00156298
0.00156277
0.00156499
0.00156843
0.00157329
0.00157982
0.00158801
0.0015979
0.00160959
0.00162318
0.00163879
0.00165654
0.00167657
0.00169905
0.00172415
0.00175208
0.00178307
0.00181737
0.00185526
0.00189707
0.00194315
0.00199391
0.0020498
0.00211131
0.00217901
0.00225353
0.00233555
0.00242584
0.00252524
0.00263469
0.0027552
0.00288791
0.048964
0.0519019
0.0548994
0.0579316
0.0609646
0.0639532
0.0668386
0.0695386
0.0719524
0.073934
0.0752999
0.0757969
0.0751355
0.0728004
0.0684346
0.0609777
0.050429
0.0342031
0.0147407
-0.0151062
-0.0437761
-0.0914972
-0.12258
-0.186137
-0.207666
-0.269486
0.0015822
0.00157918
0.00157935
0.00158205
0.00158612
0.00159173
0.00159912
0.0016083
0.00161933
0.0016323
0.00164733
0.00166453
0.00168404
0.00170603
0.00173066
0.00175813
0.00178866
0.00182249
0.0018599
0.00190118
0.00194669
0.00199679
0.00205193
0.00211256
0.00217923
0.0022525
0.00233305
0.00242157
0.00251888
0.00262584
0.00274342
0.00287268
0.00301476
0.00317094
0.0480205
0.0510394
0.0541551
0.057353
0.0606113
0.0639003
0.0671802
0.0703974
0.0734787
0.0763296
0.0788132
0.0807579
0.0819171
0.0820048
0.0805234
0.0770926
0.0706366
0.0610529
0.0457393
0.0268253
-0.00293049
-0.0322874
-0.082099
-0.115345
-0.184429
-0.2075
-0.275443
0.00159758
0.00159494
0.00159549
0.00159866
0.00160334
0.00160967
0.0016179
0.00162806
0.00164019
0.0016544
0.00167082
0.00168958
0.00171081
0.0017347
0.00176142
0.00179119
0.00182424
0.00186083
0.00190126
0.00194583
0.00199492
0.00204893
0.0021083
0.00217353
0.00224517
0.00232384
0.00241021
0.00250502
0.0026091
0.00272336
0.00284879
0.00298647
0.00313758
0.00330344
0.00348544
0.00368511
0.0468284
0.049878
0.0530524
0.0563428
0.0597369
0.0632173
0.0667581
0.0703246
0.073871
0.0773296
0.0806157
0.0836032
0.0861324
0.0879701
0.0888316
0.0882379
0.0857969
0.0804419
0.0719612
0.0577567
0.0396427
0.0102397
-0.0195208
-0.0713353
-0.10671
-0.181748
-0.206798
-0.281734
0.0016125
0.00161025
0.00161117
0.0016148
0.00162007
0.00162711
0.00163615
0.00164725
0.00166045
0.00167588
0.00169365
0.00171391
0.00173682
0.00176255
0.0017913
0.0018233
0.0018588
0.00189807
0.00194141
0.00198918
0.00204174
0.00209952
0.00216299
0.00223266
0.00230911
0.00239298
0.00248497
0.00258585
0.00269647
0.00281776
0.00295074
0.00309653
0.00325634
0.00343151
0.00362348
0.00383379
0.00406414
0.0301765
0.0323794
0.0347149
0.0371866
0.0397981
0.0425518
0.0454493
0.0484916
0.0516773
0.0550034
0.058464
0.0620499
0.0657471
0.0695357
0.0733858
0.0772558
0.0810881
0.0848049
0.0882955
0.0914106
0.0939309
0.0955888
0.0959232
0.0945271
0.0903679
0.0831278
0.0702009
0.0531434
0.0244003
-0.00545793
-0.0590136
-0.0964702
-0.178082
-0.2054
-0.288579
0.00162696
0.00162508
0.00162637
0.00163044
0.00163629
0.00164401
0.00165384
0.00166585
0.0016801
0.0016967
0.00171578
0.00173751
0.00176203
0.00178955
0.00182028
0.00185444
0.00189231
0.00193417
0.00198034
0.00203119
0.0020871
0.00214853
0.00221595
0.00228992
0.00237101
0.0024599
0.0025573
0.00266402
0.00278093
0.00290899
0.00304924
0.00320283
0.003371
0.00355511
0.00375665
0.00397718
0.00421843
0.00448226
0.00477065
0.0290149
0.0311516
0.033422
0.035831
0.0383834
0.041083
0.0439336
0.0469388
0.0500997
0.0534176
0.0568917
0.0605189
0.0642929
0.0682027
0.0722323
0.0763589
0.0805473
0.0847484
0.0888943
0.0928834
0.0965825
0.0997891
0.102253
0.103542
0.10324
0.100344
0.0944824
0.0830294
0.0672767
0.039519
0.00995676
-0.0449617
-0.0843537
-0.172927
-0.203015
-0.29669
0.00164094
0.00163941
0.00164107
0.00164557
0.00165197
0.00166035
0.00167096
0.00168386
0.00169911
0.00171685
0.0017372
0.00176034
0.00178644
0.00181569
0.00184832
0.00188458
0.00192474
0.0019691
0.00201801
0.00207183
0.00213098
0.00219593
0.00226717
0.00234527
0.00243083
0.00252455
0.00262717
0.00273951
0.00286246
0.00299702
0.00314425
0.00330533
0.00348152
0.00367422
0.00388493
0.00411527
0.00436697
0.00464193
0.00494217
0.00526986
0.00562734
0.0193154
0.0207963
0.0223827
0.02408
0.0258938
0.0278297
0.0298934
0.0320903
0.0344263
0.036907
0.0395372
0.0423225
0.0452677
0.0483767
0.0516534
0.0551003
0.0587187
0.0625077
0.0664643
0.0705814
0.074848
0.0792457
0.0837461
0.0883084
0.0928743
0.0973585
0.10164
0.105535
0.108812
0.111068
0.111902
0.110341
0.105967
0.0961815
0.0820008
0.0556582
0.0267869
-0.0291644
-0.0701316
-0.165991
-0.199101
-0.307459
0.00165441
0.00165324
0.00165524
0.00166017
0.00166711
0.00167613
0.00168748
0.00170123
0.00171747
0.0017363
0.00175789
0.0017824
0.00181001
0.00184094
0.00187541
0.00191369
0.00195606
0.00200284
0.00205439
0.00211108
0.00217336
0.00224169
0.00231661
0.00239868
0.00248855
0.00258691
0.00269454
0.00281227
0.00294103
0.00308182
0.00323575
0.003404
0.00358789
0.00378881
0.00400831
0.00424802
0.00450972
0.00479535
0.00510692
0.00544668
0.00581698
0.00622031
0.00665937
0.00713701
0.00765624
0.0198895
0.0214079
0.0230344
0.0247748
0.0266349
0.0286206
0.0307381
0.0329936
0.0353931
0.0379427
0.0406487
0.0435172
0.046554
0.0497646
0.0531535
0.0567259
0.0604843
0.0644309
0.0685656
0.0728854
0.0773822
0.0820438
0.0868496
0.0917664
0.0967463
0.101716
0.106571
0.111151
0.115246
0.118485
0.12048
0.120318
0.117531
0.109581
0.0972662
0.0726819
0.0450297
-0.011392
-0.0535324
-0.157042
-0.193
-0.319773
0.00166737
0.00166653
0.00166889
0.00167421
0.00168167
0.00169132
0.00170339
0.00171797
0.00173514
0.00175504
0.00177782
0.00180365
0.00183273
0.00186527
0.00190153
0.00194176
0.00198626
0.00203538
0.00208946
0.00214892
0.0022142
0.00228579
0.00236424
0.00245014
0.00254413
0.00264695
0.00275938
0.00288229
0.00301661
0.00316338
0.00332371
0.00349884
0.00369008
0.00389886
0.00412676
0.00437543
0.00464669
0.00494249
0.00526491
0.00561619
0.00599872
0.00641505
0.0068679
0.00736015
0.00789488
0.00847532
0.00910489
0.0204397
0.0219942
0.0236593
0.0254413
0.027346
0.02938
0.0315498
0.0338617
0.0363224
0.0389393
0.0417189
0.044668
0.0477936
0.0511022
0.0546008
0.0582947
0.0621896
0.0662899
0.0705976
0.0751134
0.0798347
0.0847549
0.0898582
0.0951208
0.100505
0.105953
0.111374
0.116631
0.121537
0.125762
0.12894
0.13022
0.129123
0.123173
0.112977
0.0905632
0.0646469
0.00840113
-0.0343324
-0.145342
-0.184094
-0.331201
0.0016798
0.00167929
0.00168197
0.0016877
0.00169566
0.0017059
0.00171866
0.00173404
0.00175213
0.00177305
0.00179697
0.00182408
0.00185457
0.00188868
0.00192664
0.00196875
0.00201532
0.00206667
0.0021232
0.00218532
0.00225349
0.00232821
0.00241004
0.0024996
0.00259756
0.00270465
0.00282168
0.00294953
0.00308917
0.00324165
0.00340811
0.0035898
0.00378806
0.00400435
0.00424026
0.00449749
0.00477787
0.00508338
0.00541612
0.00577839
0.00617258
0.0066013
0.00706729
0.0075735
0.00812301
0.00871912
0.00936531
0.0100652
0.0108227
0.0116419
0.012527
0.0134823
0.0145127
0.0156229
0.0168181
0.0181033
0.0194842
0.0209663
0.0225555
0.0242579
0.0260798
0.0280277
0.0301083
0.0323283
0.0346949
0.0372153
0.0398971
0.0427479
0.0457751
0.048987
0.0523916
0.0559959
0.0598081
0.0638354
0.0680843
0.0725604
0.0772678
0.0822079
0.0873778
0.0927713
0.098372
0.104152
0.110066
0.116044
0.121969
0.12768
0.132886
0.13726
0.140018
0.140683
0.136886
0.129055
0.10924
0.0855929
0.0302656
-0.0122893
-0.1308
-0.171819
-0.341222
0.00169169
0.00169148
0.0016945
0.00170059
0.00170904
0.00171986
0.00173329
0.00174944
0.0017684
0.00179031
0.00181534
0.00184367
0.00187553
0.00191113
0.00195075
0.00199466
0.0020432
0.00209671
0.00215559
0.00222026
0.00229119
0.00236891
0.00245399
0.00254706
0.0026488
0.00275998
0.0028814
0.00301398
0.0031587
0.00331663
0.00348894
0.00367688
0.00388183
0.00410527
0.00434882
0.00461419
0.00490325
0.00521799
0.00556057
0.00593328
0.00633857
0.00677909
0.0072576
0.00777708
0.00834067
0.00895171
0.00961373
0.0103304
0.0111057
0.0119438
0.0128489
0.0138256
0.0148786
0.0160129
0.0172336
0.0185462
0.0199562
0.0214695
0.0230921
0.0248305
0.026691
0.0286805
0.030806
0.0330747
0.0354943
0.0380724
0.0408172
0.0437369
0.0468402
0.0501359
0.0536324
0.0573396
0.0612666
0.0654224
0.0698164
0.0744562
0.079349
0.084501
0.0899148
0.0955909
0.10152
0.107686
0.114055
0.120576
0.127155
0.133661
0.139844
0.145412
0.149662
0.152134
0.150613
0.145392
0.128615
0.107857
0.0542952
0.0127731
-0.112474
-0.155691
-0.349534
0.00170301
0.00170311
0.00170643
0.0017129
0.0017218
0.00173318
0.00174725
0.00176414
0.00178394
0.0018068
0.00183289
0.00186241
0.00189557
0.00193261
0.00197381
0.00201947
0.0020699
0.00212548
0.0021866
0.00225371
0.0023273
0.00240789
0.00249607
0.00259249
0.00269785
0.00281292
0.00293854
0.00307562
0.00322518
0.0033883
0.00356616
0.00376006
0.00397137
0.00420162
0.00445241
0.00472552
0.00502282
0.00534634
0.00569825
0.00608088
0.00649673
0.00694844
0.00743884
0.00797093
0.00854791
0.00917315
0.00985023
0.0105829
0.0113752
0.0122312
0.0131554
0.0141524
0.015227
0.0163843
0.0176296
0.0189684
0.0204064
0.0219496
0.0236044
0.0253772
0.0272749
0.0293046
0.0314735
0.0337893
0.03626
0.0388939
0.0416996
0.0446861
0.0478629
0.0512393
0.0548259
0.0586333
0.0626717
0.0669526
0.071487
0.0762854
0.0813586
0.0867168
0.0923677
0.098317
0.104565
0.111105
0.117919
0.12497
0.132189
0.139473
0.146616
0.153374
0.15913
0.163457
0.164313
0.161882
0.148531
0.131306
0.0805577
0.0410752
-0.0900427
-0.135078
-0.354623
0.00171377
0.00171415
0.00171778
0.00172458
0.00173393
0.00174584
0.00176053
0.00177813
0.00179874
0.00182251
0.00184962
0.00188027
0.00191469
0.00195311
0.00199583
0.00204314
0.00209539
0.00215295
0.00221622
0.00228567
0.00236178
0.00244511
0.00253626
0.00263587
0.00274467
0.00286345
0.00299306
0.00313443
0.00328859
0.00345664
0.00363978
0.00383933
0.00405668
0.00429337
0.00455104
0.00483148
0.00513659
0.00546842
0.00582918
0.00622122
0.00664706
0.00710938
0.00761105
0.0081551
0.00874478
0.00938348
0.0100749
0.0108227
0.0116311
0.0125043
0.0134467
0.014463
0.0155582
0.0167375
0.0180063
0.0193701
0.0208349
0.0224069
0.0240926
0.0258987
0.0278321
0.0299004
0.0321111
0.0344723
0.0369925
0.0396804
0.0425451
0.0455964
0.0488443
0.0522999
0.055974
0.0598783
0.0640246
0.0684263
0.073097
0.0780496
0.0832981
0.0888568
0.0947373
0.100952
0.10751
0.114413
0.121657
0.129224
0.137068
0.145114
0.153201
0.161131
0.168384
0.174583
0.177896
0.178435
0.168916
0.155799
0.108919
0.0728388
-0.0630018
-0.109752
-0.353313
0.00172395
0.00172459
0.00172851
0.00173565
0.00174542
0.00175784
0.00177312
0.0017914
0.00181278
0.00183742
0.00186551
0.00189725
0.00193286
0.00197261
0.00201678
0.00206568
0.00211966
0.0021791
0.00224443
0.0023161
0.00239463
0.00248057
0.00257453
0.00267718
0.00278926
0.00291156
0.00304495
0.00319039
0.00334891
0.00352163
0.00370977
0.00391466
0.00413773
0.00438052
0.0046447
0.00493207
0.00524456
0.00558425
0.00595337
0.00635429
0.00678957
0.00726192
0.00777424
0.00832961
0.00893129
0.00958275
0.0102877
0.0110499
0.0118736
0.012763
0.0137227
0.0147575
0.0158724
0.0170726
0.0183637
0.0197515
0.021242
0.0228416
0.0245569
0.0263949
0.0283629
0.0304683
0.0327195
0.0351245
0.0376925
0.0404325
0.0433545
0.0464685
0.0497854
0.0533174
0.0570761
0.0610742
0.0653253
0.0698449
0.074648
0.0797502
0.0851685
0.0909205
0.0970243
0.103497
0.110354
0.117609
0.125271
0.133338
0.141787
0.150573
0.159582
0.168665
0.177398
0.18547
0.191288
0.194907
0.189599
0.181211
0.139498
0.108384
-0.0314997
-0.0795003
-0.352785
0.00173353
0.00173442
0.00173862
0.00174607
0.00175625
0.00176915
0.001785
0.00180393
0.00182605
0.00185153
0.00188054
0.00191332
0.00195008
0.00199109
0.00203664
0.00208706
0.00214269
0.00220393
0.00227121
0.002345
0.00242582
0.00251424
0.00261088
0.00271641
0.00283159
0.00295723
0.00309421
0.00324349
0.00340613
0.00358326
0.00377613
0.00398607
0.00421452
0.00446306
0.00473338
0.00502728
0.00534672
0.00569382
0.00607081
0.00648011
0.00692428
0.00740609
0.00792845
0.00849449
0.00910751
0.00977101
0.0104887
0.0112646
0.0121027
0.0130075
0.0139837
0.015036
0.0161695
0.0173897
0.0187021
0.0201128
0.0216278
0.0232537
0.0249975
0.0268661
0.0288672
0.0310086
0.0332987
0.035746
0.03836
0.0411505
0.0441276
0.0473022
0.0506862
0.0542923
0.0581331
0.0622222
0.0665759
0.0712098
0.0761404
0.0813875
0.0869708
0.0929107
0.0992302
0.105953
0.113102
0.120699
0.128765
0.137315
0.146349
0.155853
0.165755
0.175958
0.186142
0.196066
0.204409
0.211196
0.210438
0.207233
0.172282
0.147813
0.00402081
-0.0421771
-0.372502
0.00174251
0.00174364
0.00174809
0.00175585
0.00176641
0.00177977
0.00179616
0.0018157
0.00183853
0.0018648
0.00189471
0.00192847
0.00196632
0.00200854
0.00205541
0.00210726
0.00216447
0.00222742
0.00229656
0.00237235
0.00245535
0.00254611
0.00264528
0.00275354
0.00287165
0.00300044
0.0031408
0.00329371
0.00346023
0.00364152
0.00383883
0.00405352
0.00428704
0.00454099
0.00481706
0.0051171
0.00544308
0.00579713
0.00618151
0.00659867
0.00705121
0.00754189
0.0080737
0.00864976
0.00927345
0.00994829
0.010678
0.0114667
0.0123186
0.013238
0.0142296
0.0152985
0.0164497
0.0176888
0.0190217
0.0204541
0.0219925
0.0236437
0.0254145
0.0273125
0.0293454
0.0315213
0.0338487
0.0363369
0.0389957
0.041835
0.0448655
0.0480992
0.0515481
0.0552257
0.0591458
0.0633234
0.0677756
0.0725198
0.0775756
0.082964
0.0887068
0.094829
0.101357
0.108322
0.115751
0.123678
0.132135
0.141152
0.15075
0.160945
0.171713
0.183005
0.194602
0.206335
0.21717
0.227126
0.231193
0.23351
0.207409
0.191163
0.0476359
0.00845873
-0.424913
0.00175087
0.00175221
0.00175691
0.00176496
0.00177588
0.00178969
0.00180658
0.00182671
0.00185021
0.00187724
0.00190799
0.00194269
0.00198158
0.00202493
0.00207306
0.00212628
0.00218498
0.00224955
0.00232044
0.00239814
0.00248319
0.00257617
0.00267772
0.00278855
0.00290943
0.00304118
0.00318472
0.00334104
0.00351121
0.0036964
0.00389788
0.00411701
0.00435528
0.00461429
0.00489576
0.00520154
0.00553363
0.00589418
0.00628548
0.00670999
0.00717035
0.00766935
0.00820999
0.00879545
0.00942913
0.0101146
0.0108557
0.0116564
0.0125211
0.0134542
0.0144605
0.015545
0.0167131
0.0179702
0.0193223
0.0207755
0.0223362
0.0240115
0.0258084
0.0277345
0.0297978
0.0320067
0.0343703
0.036898
0.0395998
0.0424863
0.0455686
0.0488593
0.052371
0.0561177
0.0601147
0.0643784
0.068926
0.0737778
0.0789545
0.0844787
0.0903766
0.0966759
0.103406
0.110602
0.118303
0.12655
0.135384
0.14485
0.154992
0.165853
0.17745
0.189786
0.20274
0.21623
0.229513
0.242601
0.251616
0.259648
0.244682
0.237603
0.10833
0.0803651
-0.466536
0.0017586
0.00176015
0.00176507
0.00177339
0.00178465
0.00179888
0.00181626
0.00183695
0.00186108
0.00188882
0.00192037
0.00195596
0.00199584
0.00204027
0.00208958
0.0021441
0.0022042
0.0022703
0.00234285
0.00242234
0.00250933
0.00260439
0.00270819
0.00282144
0.0029449
0.00307944
0.00322596
0.00338546
0.00355904
0.00374788
0.00395325
0.00417654
0.00441924
0.00468296
0.00496945
0.00528058
0.00561837
0.00598497
0.00638271
0.00681407
0.0072817
0.00778845
0.00833732
0.00893156
0.00957457
0.01027
0.0110217
0.0118337
0.0127105
0.0136564
0.0146765
0.0157758
0.0169597
0.0182337
0.0196041
0.0210769
0.0226589
0.0243572
0.0261789
0.0281318
0.0302243
0.0324653
0.0348636
0.037429
0.0401722
0.0431041
0.0462365
0.0495819
0.0531546
0.0569687
0.0610405
0.0653878
0.0700287
0.0749841
0.0802772
0.0859335
0.0919809
0.0984504
0.105376
0.112798
0.120762
0.129316
0.138509
0.148407
0.159073
0.170573
0.182965
0.1963
0.210552
0.22572
0.241339
0.257468
0.27136
0.285104
0.282781
0.285397
0.191985
0.173592
-0.39219
0.0017657
0.00176743
0.00177257
0.00178113
0.00179272
0.00180734
0.00182517
0.00184639
0.00187112
0.00189954
0.00193185
0.00196828
0.00200908
0.00205454
0.00210497
0.0021607
0.00222213
0.00228967
0.00236378
0.00244495
0.00253375
0.00263077
0.00273667
0.00285218
0.00297807
0.00311519
0.00326449
0.00342697
0.00360373
0.00379595
0.00400494
0.00423208
0.00447889
0.00474699
0.00503813
0.00535422
0.00569728
0.00606949
0.00647319
0.00691089
0.00738527
0.0078992
0.00845572
0.00905808
0.00970976
0.0104144
0.011176
0.0119986
0.0128866
0.0138446
0.0148776
0.0159908
0.0171895
0.0184795
0.0198671
0.0213586
0.0229607
0.0246807
0.026526
0.0285046
0.0306252
0.0328964
0.0353278
0.0379296
0.0407128
0.0436886
0.0468692
0.050268
0.0538994
0.057779
0.0619232
0.0663508
0.071082
0.0761387
0.0815457
0.0873292
0.0935206
0.100156
0.107271
0.114912
0.123128
0.131974
0.141515
0.151828
0.162992
0.1751
0.188246
0.202527
0.218004
0.234766
0.252595
0.271617
0.290123
0.309445
0.319583
0.332421
0.287486
0.276442
-0.111528
0.00177215
0.00177404
0.00177938
0.00178818
0.00180007
0.00181505
0.00183332
0.00185503
0.00188033
0.00190938
0.0019424
0.00197963
0.0020213
0.00206772
0.0021192
0.00217608
0.00223876
0.00230764
0.00238321
0.00246596
0.00255645
0.0026553
0.00276316
0.00288076
0.0030089
0.00314844
0.00330032
0.00346555
0.00364525
0.00384061
0.00405293
0.00428363
0.00453423
0.00480636
0.0051018
0.00542245
0.00577036
0.00614773
0.00655692
0.00700046
0.00748105
0.00800159
0.00856515
0.00917502
0.0098347
0.0105479
0.0113186
0.0121509
0.0130494
0.0140187
0.0150637
0.0161898
0.0174024
0.0187076
0.0201114
0.0216204
0.0232415
0.0249822
0.0268499
0.0288531
0.0310003
0.0333006
0.035764
0.0384007
0.0412221
0.0442401
0.0474674
0.0509179
0.0546058
0.0585481
0.0627622
0.0672672
0.0720853
0.0772401
0.0827572
0.0886644
0.0949968
0.101792
0.109089
0.116939
0.125397
0.134524
0.144398
0.155106
0.166746
0.179432
0.193293
0.208471
0.225101
0.24335
0.263209
0.284922
0.307624
0.332256
0.353407
0.37679
0.374184
0.376169
0.223242
0.00177794
0.00177998
0.0017855
0.00179452
0.00180669
0.00182201
0.00184068
0.00186286
0.00188868
0.00191834
0.00195203
0.00198999
0.00203249
0.00207981
0.00213227
0.00219022
0.00225406
0.00232421
0.00240113
0.00248535
0.00257742
0.00267796
0.00278763
0.00290719
0.00303741
0.00317917
0.00333342
0.00350119
0.00368359
0.00388183
0.00409722
0.00433118
0.00458525
0.00486107
0.00516043
0.00548525
0.00583759
0.00621968
0.00663388
0.00708276
0.00756903
0.00809561
0.00866561
0.00928236
0.00994938
0.0106704
0.0114495
0.0122908
0.0131989
0.0141786
0.0152348
0.0163729
0.0175986
0.0189178
0.0203368
0.0218622
0.0235014
0.0252615
0.0271505
0.0291769
0.0313494
0.0336776
0.0361715
0.0388417
0.0416999
0.0447583
0.04803
0.0515299
0.0552728
0.0592757
0.0635573
0.0681384
0.0730406
0.0782889
0.0839116
0.0899385
0.0964064
0.103355
0.110828
0.118878
0.127567
0.136965
0.147158
0.158243
0.170331
0.183561
0.198088
0.214099
0.231795
0.251411
0.27312
0.297282
0.323667
0.353084
0.383122
0.416684
0.443062
0.467065
0.458503
0.00178306
0.00178523
0.00179092
0.00180014
0.00181257
0.00182821
0.00184725
0.00186986
0.00189618
0.0019264
0.00196071
0.00199937
0.00204263
0.00209079
0.00214417
0.00220312
0.00226803
0.00233935
0.00241753
0.0025031
0.00259663
0.00269873
0.00281009
0.00293143
0.00306356
0.00320737
0.00336379
0.00353388
0.00371874
0.00391961
0.00413779
0.00437472
0.00463193
0.0049111
0.00521402
0.00554261
0.00589897
0.00628532
0.00670406
0.00715776
0.00764917
0.00818123
0.00875708
0.00938006
0.0100538
0.010782
0.0115687
0.0124182
0.0133352
0.0143244
0.0153909
0.0165401
0.0177778
0.01911
0.0205432
0.0220841
0.02374
0.0255184
0.0274275
0.0294758
0.0316722
0.0340268
0.0365497
0.039252
0.0421455
0.0452428
0.0485574
0.0521048
0.0559008
0.0599625
0.0643095
0.0689636
0.0739471
0.0792858
0.0850101
0.0911523
0.0977495
0.104846
0.112488
0.12073
0.12964
0.139298
0.149794
0.161232
0.173744
0.187485
0.202634
0.21941
0.238078
0.258946
0.282311
0.308631
0.338116
0.371632
0.408474
0.450493
0.494076
0.538759
0.586314
0.00178751
0.0017898
0.00179562
0.00180502
0.0018177
0.00183364
0.00185302
0.00187603
0.00190282
0.00193355
0.00196845
0.00200775
0.00205172
0.00210066
0.00215488
0.00221475
0.00228067
0.00235306
0.00243241
0.00251923
0.00261409
0.00271762
0.00283051
0.00295348
0.00308736
0.00323302
0.00339142
0.0035636
0.0037507
0.00395393
0.00417463
0.00441422
0.00467427
0.00495644
0.00526255
0.00559453
0.00595448
0.00634465
0.00676745
0.00722547
0.00772148
0.00825845
0.00883953
0.00946812
0.0101478
0.0108824
0.0116761
0.0125331
0.0134581
0.0144559
0.0155318
0.0166912
0.0179399
0.0192842
0.0207305
0.0222857
0.0239573
0.0257529
0.0276808
0.0297497
0.031969
0.0343485
0.0368989
0.0396316
0.0425589
0.0456933
0.0490492
0.052642
0.0564887
0.060607
0.0650168
0.0697401
0.0748012
0.0802284
0.0860517
0.0923047
0.0990265
0.106263
0.114065
0.122493
0.131617
0.141518
0.152299
0.164072
0.176978
0.191193
0.206914
0.224394
0.243938
0.265904
0.290701
0.318873
0.350872
0.387636
0.429313
0.477281
0.52987
0.586293
0.64089
0.00179127
0.00179366
0.0017996
0.00180917
0.00182207
0.00183828
0.00185798
0.00188136
0.00190857
0.00193978
0.00197522
0.00201512
0.00205974
0.00210939
0.0021644
0.00222512
0.00229195
0.00236533
0.00244574
0.0025337
0.00262978
0.00273461
0.00284888
0.00297333
0.00310878
0.00325612
0.00341629
0.00359035
0.00377944
0.00398478
0.00420772
0.00444969
0.00471225
0.00499708
0.005306
0.00564097
0.00600409
0.00639762
0.006824
0.00728583
0.0077859
0.00832719
0.00891291
0.00954646
0.0102315
0.0109719
0.0117717
0.0126353
0.0135675
0.0145731
0.0156575
0.0168262
0.018085
0.0194403
0.0208986
0.0224672
0.0241533
0.0259648
0.0279102
0.0299987
0.0322394
0.0346424
0.0372188
0.0399804
0.0429397
0.0461095
0.0495044
0.0531406
0.0570358
0.0612087
0.0656789
0.070469
0.0756047
0.0811162
0.0870337
0.0933927
0.100235
0.107605
0.11556
0.124165
0.133491
0.143622
0.154669
0.166756
0.180029
0.194675
0.210917
0.229032
0.249348
0.272263
0.298264
0.327942
0.361884
0.401003
0.445721
0.497017
0.552838
0.611279
0.653987
0.00179435
0.0017968
0.00180286
0.00181258
0.00182567
0.00184212
0.00186212
0.00188584
0.00191343
0.00194508
0.00198101
0.00202144
0.00206667
0.00211697
0.00217269
0.00223417
0.00230183
0.00237611
0.00245747
0.00254645
0.00264362
0.00274962
0.00286512
0.00299089
0.00312773
0.00327653
0.00343827
0.00361398
0.00380481
0.004012
0.00423688
0.00448091
0.00474564
0.00503276
0.00534412
0.00568166
0.0060475
0.00644392
0.00687337
0.00733846
0.00784201
0.00838702
0.00897672
0.00961454
0.0103042
0.0110495
0.0118547
0.0127241
0.0136627
0.0146752
0.0157671
0.016944
0.0182118
0.019577
0.0210463
0.0226268
0.0243261
0.0261524
0.028114
0.0302203
0.0324809
0.0349063
0.0375073
0.0402961
0.0432854
0.0464888
0.0499216
0.0535996
0.0575408
0.0617647
0.0662926
0.0711474
0.0763554
0.081947
0.0879544
0.0944153
0.101371
0.108871
0.116972
0.12574
0.135254
0.145603
0.156902
0.169278
0.182889
0.197931
0.214643
0.233313
0.254287
0.277994
0.304953
0.335774
0.371095
0.411706
0.457865
0.510082
0.564874
0.618171
0.649453
0.00179674
0.00179922
0.00180537
0.00181522
0.00182848
0.00184515
0.00186541
0.00188943
0.00191737
0.00194941
0.00198577
0.0020267
0.00207245
0.00212334
0.00217968
0.00224185
0.00231024
0.0023853
0.0024675
0.00255738
0.00265551
0.00276251
0.00287909
0.00300599
0.00314403
0.0032941
0.00345717
0.00363429
0.0038266
0.00403534
0.00426186
0.0045076
0.00477415
0.00506319
0.00537655
0.00571621
0.0060843
0.0064831
0.00691506
0.00738283
0.00788924
0.00843731
0.00903028
0.00967162
0.010365
0.0111145
0.0119241
0.0127984
0.0137423
0.0147607
0.015859
0.017043
0.0183186
0.0196925
0.0211714
0.0227625
0.0244736
0.026313
0.0282894
0.030412
0.0326909
0.0351366
0.0377602
0.0405742
0.0435914
0.0468262
0.0502943
0.0540118
0.0579967
0.0622687
0.0668508
0.0717669
0.0770433
0.0827109
0.0888036
0.0953611
0.102425
0.110048
0.118288
0.127213
0.136903
0.147455
0.158986
0.171627
0.185545
0.200939
0.218058
0.237203
0.258731
0.28308
0.310754
0.342366
0.378488
0.419738
0.465973
0.517083
0.567994
0.614576
0.63268
0.00179841
0.0018009
0.00180713
0.00181709
0.0018305
0.00184736
0.00186784
0.00189212
0.00192037
0.00195276
0.00198951
0.00203086
0.00207708
0.00212847
0.00218537
0.00224813
0.00231716
0.0023929
0.00247582
0.00256647
0.00266541
0.00277328
0.00289077
0.00301862
0.00315767
0.00330879
0.00347296
0.00365124
0.00384476
0.00405477
0.00428261
0.00452974
0.00479773
0.00508828
0.00540324
0.00574457
0.00611441
0.00651506
0.00694898
0.00741883
0.00792745
0.00847789
0.00907341
0.0097175
0.0104139
0.0111666
0.0119798
0.012858
0.0138061
0.0148293
0.0159329
0.0171227
0.018405
0.0197862
0.0212733
0.0228737
0.0245951
0.0264461
0.0284355
0.0305726
0.0328678
0.0353317
0.0379758
0.0408129
0.043856
0.0471195
0.0506195
0.0543731
0.0583989
0.0627169
0.06735
0.0723234
0.0776637
0.0834028
0.0895761
0.0962231
0.103389
0.111126
0.119494
0.128566
0.138422
0.14916
0.1609
0.173782
0.187976
0.203678
0.221145
0.240688
0.262663
0.287491
0.315643
0.34767
0.384044
0.425148
0.470354
0.51897
0.564251
0.604113
0.605206
0.00179936
0.00180184
0.00180813
0.00181819
0.00183172
0.00184873
0.0018694
0.00189392
0.00192243
0.00195512
0.0019922
0.00203392
0.00208054
0.00213238
0.00218975
0.00225302
0.00232259
0.0023989
0.00248244
0.00257373
0.00267335
0.00278193
0.00290016
0.0030288
0.00316865
0.00332062
0.00348567
0.00366485
0.00385932
0.00407031
0.00429916
0.00454734
0.00481641
0.00510808
0.0054242
0.00576675
0.00613786
0.00653984
0.00697516
0.00744649
0.00795669
0.00850882
0.00910616
0.00975223
0.0104508
0.0112059
0.0120217
0.0129029
0.0138543
0.0148811
0.0159889
0.0171834
0.0184709
0.019858
0.0213519
0.0229601
0.0246904
0.0265514
0.0285519
0.0307017
0.0330112
0.0354915
0.0381543
0.0410123
0.0440789
0.047369
0.0508991
0.054686
0.0587488
0.063109
0.0677898
0.0728163
0.0782163
0.0840218
0.0902699
0.097001
0.104261
0.112103
0.120588
0.129792
0.139797
0.150703
0.162633
0.175729
0.190158
0.206126
0.223888
0.243748
0.266038
0.291166
0.319577
0.351712
0.38786
0.428181
0.471417
0.516575
0.55501
0.588093
0.5731
0.00179958
0.00180204
0.00180836
0.00181849
0.00183212
0.00184926
0.0018701
0.0018948
0.00192354
0.00195648
0.00199384
0.00203587
0.00208284
0.00213504
0.0021928
0.0022565
0.00232652
0.0024033
0.00248733
0.00257914
0.0026793
0.00278845
0.00290726
0.0030365
0.00317697
0.00332957
0.00349527
0.00367512
0.00387026
0.00408194
0.00431149
0.00456037
0.00483016
0.00512257
0.00543942
0.00578273
0.00615461
0.00655739
0.00699355
0.00746576
0.00797689
0.00853002
0.00912845
0.00977572
0.0104756
0.0112322
0.0120497
0.0129328
0.0138865
0.0149159
0.0160266
0.0172246
0.0185161
0.0199079
0.0214071
0.0230215
0.0247588
0.026628
0.0286382
0.0307991
0.0331212
0.0356157
0.0382946
0.0411711
0.0442588
0.0475728
0.0511301
0.0549476
0.0590447
0.0634437
0.0681678
0.0732424
0.0786965
0.0845631
0.0908802
0.097688
0.105033
0.112972
0.121566
0.13089
0.141029
0.152086
0.16418
0.177455
0.19208
0.208263
0.22625
0.246334
0.268821
0.294087
0.322509
0.354444
0.389918
0.42885
0.469342
0.510396
0.541415
0.568448
0.539681
0.00179906
0.00180147
0.00180781
0.001818
0.0018317
0.00184894
0.00186991
0.00189477
0.00192369
0.00195684
0.00199443
0.00203672
0.00208396
0.00213646
0.00219454
0.00225856
0.00232894
0.00240609
0.0024905
0.00258271
0.00268327
0.00279283
0.00291206
0.00304172
0.00318262
0.00333565
0.00350177
0.00368203
0.00387758
0.00408965
0.00431959
0.00456883
0.00483897
0.00513171
0.00544889
0.00579249
0.00616465
0.00656771
0.00700413
0.00747661
0.00798801
0.00854145
0.00914022
0.00978789
0.0104883
0.0112454
0.0120637
0.0129478
0.0139026
0.0149334
0.0160459
0.0172461
0.0185403
0.0199354
0.0214385
0.0230575
0.0248005
0.0266762
0.0286941
0.030864
0.0331966
0.0357033
0.0383964
0.0412888
0.0443949
0.0477302
0.0513109
0.0551554
0.0592838
0.0637177
0.0684806
0.0735994
0.0791032
0.0850263
0.0914052
0.098282
0.105705
0.11373
0.122422
0.131852
0.142109
0.153297
0.165529
0.178953
0.193737
0.210081
0.228216
0.248422
0.270992
0.296245
0.324436
0.355826
0.390207
0.427261
0.464477
0.501179
0.524805
0.546549
0.506188
0.0017978
0.00180015
0.00180647
0.0018167
0.00183045
0.00184776
0.00186883
0.00189382
0.00192287
0.00195618
0.00199396
0.00203644
0.0020839
0.00213662
0.00219494
0.00225922
0.00232985
0.00240726
0.00249195
0.00258442
0.00268525
0.00279507
0.00291456
0.00304447
0.0031856
0.00333884
0.00350516
0.00368559
0.00388127
0.00409345
0.00432345
0.00457272
0.00484284
0.00513552
0.00545258
0.00579601
0.00616796
0.00657075
0.00700687
0.00747899
0.00799001
0.00854304
0.0091414
0.00978867
0.0104887
0.0112455
0.0120636
0.0129475
0.0139024
0.0149335
0.0160465
0.0172476
0.0185431
0.01994
0.0214455
0.0230676
0.0248145
0.0266951
0.0287187
0.0308956
0.0332366
0.0357534
0.0384583
0.0413642
0.0444861
0.0478398
0.0514415
0.0553097
0.0594653
0.06393
0.0687277
0.0738863
0.079435
0.0854078
0.0918421
0.0987804
0.106273
0.114375
0.123149
0.13267
0.143027
0.154322
0.166668
0.180209
0.195108
0.211557
0.22977
0.250004
0.272523
0.297586
0.325356
0.355942
0.388873
0.423715
0.457329
0.489629
0.506076
0.523165
0.473185
0.00179579
0.00179805
0.00180435
0.00181458
0.00182836
0.00184571
0.00186685
0.00189192
0.00192108
0.00195451
0.00199242
0.00203504
0.00208265
0.00213553
0.00219401
0.00225845
0.00232924
0.00240682
0.00249166
0.00258427
0.00268524
0.00279517
0.00291476
0.00304473
0.0031859
0.00333915
0.00350543
0.00368578
0.00388134
0.00409332
0.00432307
0.00457203
0.00484177
0.00513397
0.00545048
0.00579329
0.00616452
0.0065665
0.00700173
0.00747288
0.00798285
0.00853476
0.00913194
0.00977798
0.0104767
0.0112324
0.0120492
0.012932
0.0138858
0.014916