/*--------------------------------*- C++ -*----------------------------------*\
  =========                 |
  \\      /  F ield         | OpenFOAM: The Open Source CFD Toolbox
   \\    /   O peration     | Website:  https://openfoam.org
    \\  /    A nd           | Version:  9
     \\/     M anipulation  |
\*---------------------------------------------------------------------------*/
FoamFile
{
    format      ascii;
    class       surfaceScalarField;
    location    "750";
    object      phi;
}
// * * * * * * * * * * * * * * * * * * * * * * * * * * * * * * * * * * * * * //

dimensions      [0 3 -1 0 0 0 0];

internalField   nonuniform List<scalar> 
26626
(
-0.377068
0.169216
-0.366807
-0.345543
0.175331
-0.3562
0.165311
-0.335523
0.155912
-0.316225
0.146996
-0.29803
-0.281007
0.181273
-0.345213
0.170942
-0.325192
0.161163
-0.306447
0.152006
-0.288873
0.143367
-0.272368
-0.256829
0.187042
-0.333881
0.176366
-0.314516
0.166311
-0.296391
0.156843
-0.279405
0.147927
-0.263453
0.139495
-0.248397
-0.234308
0.19257
-0.322203
0.181617
-0.303563
0.171286
-0.28606
0.161541
-0.26966
0.152315
-0.254226
0.143676
-0.239758
0.135485
-0.226117
0.127778
-0.213271
0.120517
-0.20118
0.113663
-0.189787
0.1072
-0.179042
0.101102
-0.168913
0.0953471
-0.159356
0.0899235
-0.150345
0.0848038
-0.141838
0.0799744
-0.133822
0.0754179
-0.126251
0.071117
-0.119116
0.0670648
-0.112384
0.0632372
-0.106026
0.0596307
-0.100037
0.0562246
-0.0943803
0.053012
-0.089048
0.049979
-0.0840128
0.0471187
-0.0792678
0.0444242
-0.0747923
0.0418783
-0.0705621
0.0394774
-0.0665807
0.0372113
-0.0628204
0.035073
-0.0592743
-0.0559251
0.197994
-0.310249
0.186696
-0.292265
0.176054
-0.275418
0.166033
-0.259639
0.156599
-0.244792
0.147683
-0.230842
0.139286
-0.21772
0.131361
-0.205346
0.123896
-0.193715
0.116852
-0.182743
0.110206
-0.172396
0.103939
-0.162646
0.0980249
-0.153442
0.0924458
-0.144766
0.0871845
-0.136577
0.0822204
-0.128858
0.0775395
-0.12157
0.0731211
-0.114697
0.068948
-0.108211
0.0650203
-0.102098
0.0613067
-0.0963238
0.0578073
-0.0908809
0.0545048
-0.0857455
0.0513923
-0.0809003
0.0484526
-0.0763281
0.0456752
-0.072015
0.0430636
-0.0679506
0.0405937
-0.0641108
0.0382654
-0.0604921
0.0360649
-0.0570738
0.0339956
-0.0538558
0.0320369
-0.0508141
-0.0479486
0.00216621
-0.00456812
0.00200467
-0.00432351
0.00185183
-0.00409341
0.0017079
-0.00387763
0.00157193
-0.00367479
0.00144352
-0.00348476
0.00132196
-0.00330699
0.00120745
-0.00314106
0.00109933
-0.00298589
0.000996986
-0.00284222
0.000900339
-0.00270869
0.000808633
-0.00258521
0.000721982
-0.00247219
0.000640051
-0.00236944
0.000562552
-0.00227559
0.000488485
-0.0021928
0.000418291
-0.00211974
0.000351635
-0.00205975
0.000288552
-0.0020096
0.000228209
-0.00197803
0.000171607
-0.00195517
0.000120245
-0.00195909
7.48553e-05
-0.00197041
3.974e-05
-0.00198882
5.80721e-06
-0.00208541
-0.00174476
0.203142
-0.29795
0.191567
-0.28069
0.180649
-0.264499
0.170386
-0.249377
0.160676
-0.235082
0.151553
-0.221719
0.142913
-0.20908
0.134809
-0.197242
0.127147
-0.186053
0.119917
-0.175513
0.113101
-0.16558
0.106669
-0.156214
0.100602
-0.147376
0.0948783
-0.139042
0.0894788
-0.131178
0.0843834
-0.123762
0.0795781
-0.116765
0.0750458
-0.110165
0.0707691
-0.103935
0.0667307
-0.0980599
0.0629273
-0.0925204
0.0593346
-0.0872882
0.0559458
-0.0823567
0.052747
-0.0777015
0.0497312
-0.0733123
0.0468882
-0.0691719
0.0442006
-0.065263
0.0416685
-0.0615786
0.039278
-0.0581016
0.0370257
-0.0548214
0.0348977
-0.0517278
0.0328906
-0.048807
0.0309975
-0.0460555
-0.0434559
0.0024193
-0.00464226
0.00224359
-0.00439241
0.00207784
-0.00415776
0.00192126
-0.00393683
0.00177332
-0.00372969
0.00163395
-0.00353542
0.00150209
-0.0033529
0.00137764
-0.00318254
0.00125993
-0.00302334
0.00114885
-0.00287481
0.0010438
-0.00273717
0.000944472
-0.00260937
0.00085066
-0.0024914
0.000761986
-0.00238352
0.000676994
-0.00228445
0.000596951
-0.00219554
0.000520993
-0.00211684
0.000448124
-0.00204687
0.000378697
-0.00199032
0.000311765
-0.00194267
0.000249056
-0.00191532
0.000188801
-0.00189492
0.000134509
-0.0019048
8.38145e-05
-0.00191972
4.4613e-05
-0.00194961
8.54761e-06
-0.00204934
-0.00173621
0.208117
-0.285374
0.196266
-0.268839
0.185105
-0.253339
0.174532
-0.238803
0.164649
-0.225199
0.15525
-0.21232
0.146455
-0.200285
0.138122
-0.18891
0.13027
-0.178201
0.122867
-0.16811
0.115882
-0.158595
0.109291
-0.149622
0.103076
-0.141161
0.097214
-0.133179
0.0916833
-0.125647
0.0864635
-0.118543
0.0815407
-0.111842
0.0768944
-0.105519
0.072514
-0.0995542
0.0683824
-0.0939283
0.0644788
-0.0886168
0.0608032
-0.0836127
0.0573315
-0.0788849
0.0540566
-0.0744267
0.0509649
-0.0702206
0.0480493
-0.0662564
0.0452996
-0.0625133
0.0427052
-0.0589843
0.040256
-0.0556524
0.0379484
-0.0525138
0.0357652
-0.0495446
0.0337097
-0.0467516
0.0317683
-0.044114
0.0299408
-0.0416284
0.0282135
-0.0392776
-0.0370649
0.00269025
-0.00470529
0.00249937
-0.00445138
0.00231961
-0.00421265
0.00214973
-0.00398788
0.0019894
-0.0037765
0.00183813
-0.00357842
0.00169499
-0.00339228
0.00156028
-0.0032182
0.00143272
-0.00305498
0.00131249
-0.0029031
0.00119835
-0.00276068
0.00109093
-0.00262974
0.000988648
-0.00250708
0.000892317
-0.00239507
0.000801189
-0.00229239
0.00071492
-0.00219818
0.000632578
-0.0021132
0.000554235
-0.00203849
0.000478957
-0.00197159
0.000406971
-0.00191834
0.000338155
-0.00187385
0.000271425
-0.00184859
0.00020874
-0.00183223
0.000149419
-0.00184548
9.44053e-05
-0.0018647
5.20604e-05
-0.00190727
9.28853e-06
-0.00200657
-0.00172693
0.21285
-0.272487
0.200723
-0.256712
0.18932
-0.241936
0.178574
-0.228057
0.16838
-0.215006
0.158843
-0.202782
0.149806
-0.191248
0.141291
-0.180395
0.133262
-0.170173
0.125687
-0.160534
0.118546
-0.151454
0.111806
-0.142883
0.10545
-0.134805
0.0994495
-0.127179
0.0937944
-0.119992
0.0884571
-0.113205
0.0834204
-0.106806
0.0786704
-0.100769
0.0741899
-0.0950737
0.0699615
-0.0897
0.0659716
-0.0846268
0.0622062
-0.0798472
0.0586549
-0.0753337
0.0553076
-0.0710793
0.0521467
-0.0670598
0.0491655
-0.0632752
0.0463536
-0.0597013
0.0436971
-0.0563279
0.041196
-0.0531513
0.0388297
-0.0501475
0.036605
-0.0473199
0.0345012
-0.0446478
0.0325149
-0.0421276
0.0306425
-0.039756
0.0288772
-0.0375123
0.0272085
-0.0353963
-0.0334047
0.00450492
-0.00666793
0.00421242
-0.0063005
0.00393603
-0.0059538
0.00367583
-0.00562757
0.00342975
-0.00531928
0.00319831
-0.0050297
0.00297948
-0.00475631
0.0027729
-0.00449871
0.0025778
-0.00425629
0.00239381
-0.00402866
0.00222021
-0.00381427
0.00205648
-0.00361277
0.00190172
-0.00342366
0.00175559
-0.00324615
0.00161724
-0.00307985
0.00148684
-0.00292458
0.00136361
-0.00277988
0.0012477
-0.00264477
0.00113704
-0.00251908
0.00103322
-0.00240326
0.000934558
-0.00229641
0.000840666
-0.0021985
0.00075207
-0.00210958
0.000667373
-0.0020285
0.000586764
-0.00195788
0.000510594
-0.00189542
0.000436204
-0.00184395
0.000364817
-0.00180246
0.000296189
-0.00177996
0.000229265
-0.00176531
0.000166113
-0.00178233
0.000106838
-0.00180543
5.7644e-05
-0.00185808
1.18452e-05
-0.00196077
-0.00171508
0.217445
-0.259359
0.205041
-0.244308
0.193362
-0.230258
0.182374
-0.217069
0.172015
-0.204646
0.162232
-0.192999
0.153012
-0.182029
0.144317
-0.1717
0.13612
-0.161975
0.128385
-0.152799
0.121089
-0.144159
0.114208
-0.136001
0.107713
-0.12831
0.101592
-0.121057
0.0958088
-0.114209
0.090361
-0.107757
0.0852171
-0.101662
0.080367
-0.0959185
0.0757862
-0.090493
0.0714681
-0.0853818
0.0673952
-0.0805539
0.0635503
-0.0760024
0.0599266
-0.0717099
0.0565032
-0.0676559
0.0532767
-0.0638333
0.0502299
-0.0602283
0.0473557
-0.0568272
0.0446474
-0.0536196
0.0420877
-0.0505916
0.0396765
-0.0477363
0.0373999
-0.0450434
0.0352512
-0.0424991
0.0332269
-0.0401033
0.0313131
-0.0378422
0.0295098
-0.035709
0.0278101
-0.0336966
0.0262002
-0.0317948
0.024687
-0.0300069
-0.0283158
0.00493782
-0.00672222
0.00462136
-0.00635148
0.00432295
-0.00600209
0.00404133
-0.00567218
0.00377544
-0.00536167
0.00352455
-0.00506839
0.00328763
-0.00479277
0.00306401
-0.00453269
0.0028534
-0.00428809
0.00265462
-0.0040575
0.0024666
-0.00384065
0.00228912
-0.00363679
0.00212192
-0.00344557
0.00196353
-0.00326526
0.00181456
-0.00309718
0.00167373
-0.00293902
0.00154091
-0.00279175
0.00141467
-0.00265364
0.00129549
-0.0025256
0.00118317
-0.00240676
0.00107699
-0.00229707
0.000976142
-0.00219556
0.000880521
-0.00210288
0.000789297
-0.00201836
0.000703746
-0.00194295
0.000621029
-0.00187517
0.000541989
-0.00181638
0.00046618
-0.00176814
0.000393379
-0.00172966
0.000321222
-0.0017078
0.000250181
-0.00169427
0.000184562
-0.00171671
0.000119778
-0.00174064
6.72847e-05
-0.00180558
1.33818e-05
-0.00190687
-0.0017017
0.221729
-0.245954
0.209118
-0.231697
0.197232
-0.218372
0.185999
-0.205836
0.175435
-0.194083
0.165466
-0.18303
0.156066
-0.172629
0.147202
-0.162836
0.138839
-0.153612
0.130952
-0.144913
0.123511
-0.136717
0.116492
-0.128982
0.109869
-0.121688
0.103623
-0.114812
0.0977333
-0.108319
0.0921715
-0.102196
0.0869275
-0.0964178
0.0819771
-0.0909681
0.07731
-0.0858259
0.0729055
-0.0809773
0.0687497
-0.0763981
0.0648323
-0.072085
0.0611325
-0.0680102
0.0576435
-0.0641668
0.0543514
-0.0605412
0.0512458
-0.0571227
0.0483164
-0.0538978
0.0455528
-0.050856
0.0429447
-0.0479834
0.0404817
-0.0452733
0.0381603
-0.042722
0.0359701
-0.0403089
0.0339043
-0.0380375
0.0319525
-0.0358904
0.0301147
-0.0338711
0.028377
-0.0319589
0.0267429
-0.0301607
0.0251952
-0.0284592
0.0237373
-0.0268579
0.0223623
-0.0253463
-0.0239211
0.00743972
-0.00898216
0.00698305
-0.00848315
0.00655196
-0.00801208
0.00614513
-0.00756762
0.00576116
-0.00714847
0.00539865
-0.00675319
0.00505723
-0.00638079
0.00473465
-0.0060289
0.00443003
-0.00569747
0.00414274
-0.00538488
0.00387149
-0.00509043
0.00361581
-0.00481271
0.00337462
-0.00455158
0.00314681
-0.00430488
0.00293157
-0.00407286
0.00272861
-0.00385455
0.00253741
-0.00364945
0.00235657
-0.00345595
0.00218571
-0.00327471
0.00202495
-0.0031045
0.00187247
-0.0029447
0.00172891
-0.00279546
0.00159298
-0.00265582
0.00146473
-0.00252539
0.00134354
-0.00240441
0.00122865
-0.00229186
0.0011199
-0.00218832
0.00101687
-0.00209254
0.000919724
-0.00200573
0.000827017
-0.00192565
0.000738819
-0.00185476
0.000654782
-0.00179113
0.000573751
-0.00173535
0.000496726
-0.00169111
0.000419941
-0.00165288
0.000346288
-0.00163415
0.00027469
-0.00162267
0.000203446
-0.00164547
0.000133271
-0.00167047
7.62504e-05
-0.00174856
1.53283e-05
-0.00184594
-0.00168637
0.22584
-0.232307
0.212987
-0.218845
0.20087
-0.206254
0.189453
-0.194419
0.17869
-0.183319
0.168537
-0.172877
0.158965
-0.163057
0.149935
-0.153806
0.14142
-0.145096
0.133388
-0.136881
0.125809
-0.129138
0.118661
-0.121834
0.111918
-0.114944
0.105555
-0.108448
0.0995507
-0.102315
0.0938887
-0.0965336
0.088548
-0.091077
0.0835112
-0.0859314
0.0787578
-0.0810724
0.0742704
-0.0764898
0.0700386
-0.0721663
0.0660451
-0.0680915
0.0622763
-0.0642413
0.0587251
-0.0606156
0.0553742
-0.0571903
0.0522099
-0.0539585
0.0492253
-0.0509132
0.0464099
-0.0480406
0.0437534
-0.045327
0.0412489
-0.0427688
0.0388826
-0.0403557
0.0366545
-0.0380808
0.0345472
-0.0359302
0.0325643
-0.0339075
0.0306885
-0.0319953
0.0289197
-0.0301902
0.0272512
-0.0284921
0.0256793
-0.0268873
0.0241937
-0.0253724
0.0227945
-0.0239471
0.0214713
-0.0225979
0.0202241
-0.0213281
0.019047
-0.0201297
0.0179365
-0.0189987
-0.0179319
0.0075977
-0.00848953
0.00713238
-0.00801783
0.00669338
-0.00757308
0.00627937
-0.00715361
0.00588849
-0.00675759
0.00551981
-0.00638451
0.00517127
-0.00603225
0.00484276
-0.00570038
0.00453295
-0.00538767
0.00424056
-0.00509249
0.00396444
-0.00481431
0.00370431
-0.00455259
0.00345801
-0.00430528
0.00322614
-0.004073
0.00300738
-0.0038541
0.00280079
-0.00364796
0.00260541
-0.00345407
0.00242157
-0.00327211
0.00224802
-0.00310116
0.00208383
-0.00294031
0.00192889
-0.00278976
0.00178262
-0.00264919
0.00164421
-0.00251741
0.00151364
-0.00239482
0.00138992
-0.00228069
0.00127326
-0.0021752
0.00116248
-0.00207754
0.00105795
-0.00198801
0.000957897
-0.00190568
0.000863808
-0.00183156
0.000773745
-0.00176469
0.000687802
-0.00170519
0.000606381
-0.00165393
0.000525864
-0.0016106
0.000449786
-0.0015768
0.000373171
-0.00155754
0.000298063
-0.00154756
0.000223727
-0.00157113
0.000151074
-0.00159782
8.54503e-05
-0.00168294
2.14059e-05
-0.0017819
-0.00166496
0.229744
-0.218453
0.216656
-0.205757
0.204325
-0.193923
0.192711
-0.182806
0.181761
-0.172369
0.171439
-0.162556
0.161701
-0.153319
0.152519
-0.144624
0.143855
-0.136433
0.135686
-0.128711
0.127979
-0.121431
0.120707
-0.114562
0.113849
-0.108087
0.107379
-0.101978
0.101275
-0.0962105
0.0955161
-0.0907748
0.0900821
-0.085643
0.0849555
-0.0808048
0.0801192
-0.0762361
0.0755592
-0.0719299
0.0712548
-0.067862
0.0671923
-0.064029
0.0633647
-0.0604137
0.0597479
-0.0569988
0.0563383
-0.0537807
0.0531222
-0.0507423
0.0500857
-0.0478767
0.047222
-0.0451769
0.0445206
-0.0426256
0.0419712
-0.0402194
0.0395669
-0.0379514
0.0372973
-0.0358112
0.035159
-0.0337919
0.0331381
-0.0318866
0.0312312
-0.0300884
0.0294348
-0.0283938
0.0277386
-0.0267959
0.0261357
-0.0252844
0.0246294
-0.0238661
0.0232026
-0.0225203
0.0218577
-0.0212529
0.020589
-0.0200595
0.0193919
-0.0189326
0.0182621
-0.0178689
0.0171965
-0.0168663
0.0161911
-0.01592
-0.0150272
0.00774831
-0.00798828
0.0072751
-0.00754462
0.00682853
-0.00712651
0.00640722
-0.0067323
0.00600983
-0.0063602
0.00563465
-0.00600932
0.00528087
-0.00567848
0.00494685
-0.00536636
0.00463128
-0.00507209
0.00433403
-0.00479524
0.00405337
-0.00453365
0.00378836
-0.00428757
0.00353861
-0.00405553
0.00330254
-0.00383694
0.00308004
-0.0036316
0.00286994
-0.00343786
0.00267176
-0.00325588
0.00248456
-0.00308491
0.00230749
-0.00292408
0.00214082
-0.00277364
0.00198342
-0.00263237
0.00183444
-0.00250021
0.00169395
-0.00237692
0.00156118
-0.00226206
0.0014354
-0.00215491
0.00131638
-0.00205617
0.00120406
-0.00196523
0.00109727
-0.00188122
0.000996361
-0.00180477
0.000899997
-0.0017352
0.000808804
-0.0016735
0.000721243
-0.00161763
0.000637306
-0.00156999
0.000556703
-0.00153
0.000478003
-0.0014981
0.000400559
-0.00148009
0.000323379
-0.00147038
0.000246546
-0.0014943
0.000167721
-0.00151899
9.89149e-05
-0.00161413
2.38563e-05
-0.00170684
-0.00164111
0.233351
-0.204336
0.220083
-0.19249
0.207569
-0.181408
0.195772
-0.17101
0.184653
-0.161249
0.174162
-0.152065
0.164275
-0.143432
0.154948
-0.135297
0.14615
-0.127634
0.137848
-0.12041
0.13002
-0.113603
0.122635
-0.107176
0.115667
-0.101119
0.109093
-0.0954038
0.102895
-0.0900131
0.0970432
-0.0849228
0.0915263
-0.0801261
0.0863168
-0.0755954
0.0814079
-0.0713272
0.0767719
-0.0672939
0.0723985
-0.0634886
0.0682738
-0.0599043
0.0643806
-0.0565205
0.0607119
-0.0533301
0.0572471
-0.0503159
0.0539791
-0.0474744
0.0508978
-0.0447953
0.0479857
-0.0422647
0.0452428
-0.0398827
0.0426554
-0.037632
0.0402097
-0.0355056
0.0379056
-0.0335071
0.0357293
-0.0316156
0.0336773
-0.0298347
0.0317428
-0.0281539
0.0299188
-0.0265698
0.028195
-0.0250721
0.0265713
-0.0236607
0.025034
-0.0223288
0.0235861
-0.0210725
0.0222218
-0.0198887
0.0209332
-0.0187708
0.0197174
-0.0177168
0.0185704
-0.0167219
0.0174876
-0.0157835
0.0164659
-0.0148984
0.0155023
-0.0140636
0.0145926
-0.0132754
0.0137346
-0.0125328
0.0129248
-0.0118313
0.0121608
-0.0111704
0.0114397
-0.0105462
0.0107594
-0.00995786
0.0101171
-0.00940231
0.00951109
-0.00887884
0.00893935
-0.00838479
0.00839972
-0.00791864
0.00789058
-0.00747914
0.00741016
-0.0070642
0.00695706
-0.00667341
0.00652887
-0.00630411
0.00612534
-0.00595667
0.0057442
-0.00562818
0.00538459
-0.00531888
0.00504549
-0.00502726
0.00472543
-0.00475203
0.00442335
-0.00449316
0.00413828
-0.00424859
0.00386919
-0.00401848
0.00361535
-0.0038017
0.00337593
-0.00359752
0.00314947
-0.00340513
0.0029361
-0.00322449
0.00273477
-0.00305456
0.00254477
-0.00289491
0.0023652
-0.00274452
0.00219575
-0.00260419
0.00203564
-0.00247227
0.00188457
-0.00234914
0.00174191
-0.00223425
0.00160682
-0.00212698
0.0014794
-0.00202748
0.00135857
-0.00193534
0.0012441
-0.00185076
0.00113552
-0.00177264
0.00103289
-0.00170214
0.000935399
-0.00163771
0.000842017
-0.00158012
0.000753371
-0.00152898
0.000667872
-0.00148449
0.000586416
-0.00144854
0.000506132
-0.00141782
0.000428087
-0.00140205
0.000349213
-0.00139151
0.000269074
-0.00141416
0.000188674
-0.00143859
0.00011127
-0.00153673
3.18492e-05
-0.00162742
-0.00160926
0.236774
-0.190026
0.223303
-0.179018
0.210606
-0.168711
0.19864
-0.159044
0.187351
-0.14996
0.176715
-0.141428
0.16668
-0.133397
0.157218
-0.125835
0.148292
-0.118708
0.139873
-0.111991
0.131928
-0.105658
0.124438
-0.099687
0.11737
-0.0940512
0.110703
-0.0887365
0.104409
-0.0837188
0.0984736
-0.0789878
0.0928738
-0.0745262
0.0875918
-0.0703134
0.0826069
-0.0663423
0.0779052
-0.0625922
0.0734731
-0.0590564
0.0692862
-0.0557175
0.0653377
-0.052572
0.0616103
-0.0496027
0.0580971
-0.0468027
0.0547842
-0.0441616
0.0516545
-0.0416656
0.0487044
-0.0393146
0.0459201
-0.0370985
0.0432913
-0.0350032
0.0408145
-0.0330288
0.0384758
-0.0311684
0.0362719
-0.0294117
0.0341888
-0.0277516
0.0322267
-0.0261917
0.0303716
-0.0247148
0.0286236
-0.0233241
0.0269724
-0.0220095
0.0254167
-0.0207732
0.0239492
-0.0196049
0.0225635
-0.018503
0.0212566
-0.0174639
0.0200226
-0.0164828
0.018859
-0.0155583
0.0177607
-0.0146852
0.0167245
-0.0138622
0.0157464
-0.0130855
0.0148243
-0.0123533
0.0139533
-0.0116618
0.013132
-0.01101
0.0123567
-0.0103951
0.0116253
-0.00981476
0.0109349
-0.00926753
0.0102837
-0.00875106
0.0096691
-0.00826426
0.00908908
-0.00780477
0.00854158
-0.00737114
0.0080252
-0.00696276
0.00753787
-0.00657687
0.0070779
-0.00621345
0.00664391
-0.00587012
0.00623411
-0.00554686
0.00584791
-0.00524197
0.00548317
-0.00495414
0.00513885
-0.00468294
0.00481431
-0.00442749
0.00450773
-0.00418659
0.00421859
-0.00395945
0.00394565
-0.00374554
0.00368818
-0.00354422
0.00344512
-0.00335446
0.00321588
-0.00317589
0.0029994
-0.00300801
0.0027951
-0.00285026
0.00260212
-0.00270193
0.0024203
-0.00256269
0.00224833
-0.00243222
0.00208592
-0.00230986
0.00193256
-0.00219578
0.0017876
-0.00208929
0.00165064
-0.00199002
0.00152109
-0.00189792
0.00139877
-0.00181303
0.00128263
-0.00173461
0.00117286
-0.00166287
0.00106827
-0.00159754
0.000969208
-0.00153865
0.000874843
-0.00148575
0.000785335
-0.00143947
0.000699158
-0.00139832
0.00061556
-0.00136494
0.000533856
-0.00133611
0.000454392
-0.00132258
0.000375105
-0.00131222
0.000294815
-0.00133387
0.000207813
-0.00135159
0.000126408
-0.00145532
3.67626e-05
-0.00153778
-0.0015725
0.239942
-0.175533
0.226292
-0.165368
0.213428
-0.155847
0.2013
-0.146916
0.18987
-0.13853
0.179089
-0.130647
0.168922
-0.123231
0.159329
-0.116242
0.150285
-0.109664
0.141756
-0.103462
0.133707
-0.0976087
0.126114
-0.0920939
0.118949
-0.0868864
0.112192
-0.0819794
0.105818
-0.0773452
0.0998073
-0.0729769
0.0941314
-0.0688504
0.0887803
-0.0649622
0.0837263
-0.0612882
0.0789625
-0.0578284
0.0744681
-0.054562
0.0702294
-0.0514788
0.0662291
-0.0485717
0.0624534
-0.0458269
0.0588918
-0.0432411
0.0555306
-0.0408004
0.0523629
-0.0384978
0.0493713
-0.0363231
0.046549
-0.0342762
0.0438857
-0.0323398
0.0413777
-0.0305209
0.039008
-0.0287987
0.0367695
-0.0271732
0.0346623
-0.0256444
0.0326691
-0.0241985
0.0307933
-0.022839
0.0290212
-0.021552
0.0273516
-0.0203399
0.0257743
-0.0191958
0.0242864
-0.0181171
0.0228828
-0.0170994
0.0215579
-0.016139
0.020308
-0.0152329
0.0191285
-0.0143788
0.0180157
-0.0135724
0.0169658
-0.0128123
0.0159753
-0.012095
0.0150401
-0.011418
0.014158
-0.0107797
0.0133257
-0.0101777
0.0125401
-0.00960947
0.011799
-0.00907367
0.0110994
-0.00856795
0.0104396
-0.00809121
0.0098167
-0.00764142
0.00922875
-0.00721681
0.0086747
-0.00681709
0.00815109
-0.00643915
0.00765724
-0.00608302
0.0071911
-0.0057473
0.00675155
-0.00543057
0.00633662
-0.00513194
0.00594489
-0.00485024
0.00557563
-0.00458488
0.00522691
-0.00433423
0.00489782
-0.00409839
0.00458752
-0.00387628
0.00429446
-0.00366639
0.00401812
-0.00346919
0.00375712
-0.00328323
0.00351087
-0.00310821
0.00327855
-0.00294356
0.00305898
-0.00278845
0.00285224
-0.00264352
0.00265664
-0.00250634
0.00247212
-0.00237816
0.00229791
-0.00225801
0.00213364
-0.00214559
0.0019781
-0.00204024
0.00183134
-0.00194253
0.00169259
-0.00185127
0.00156139
-0.00176672
0.00143719
-0.00168883
0.0013195
-0.00161692
0.00120825
-0.00155162
0.00110261
-0.0014919
0.00100215
-0.0014382
0.000906444
-0.00139004
0.000814992
-0.00134802
0.000727383
-0.00131071
0.000643115
-0.00128067
0.000561822
-0.00125482
0.000481188
-0.00124195
0.000399506
-0.00123054
0.000318038
-0.0012524
0.000230613
-0.00126417
0.000143214
-0.00136792
4.43715e-05
-0.00143893
-0.00152812
0.242872
-0.160864
0.229056
-0.151551
0.216033
-0.142825
0.20376
-0.134643
0.192191
-0.126961
0.181279
-0.119735
0.170988
-0.11294
0.161285
-0.106538
0.15213
-0.100509
0.143494
-0.0948256
0.135348
-0.0894629
0.127662
-0.0844075
0.120414
-0.0796388
0.113574
-0.0751393
0.107121
-0.070892
0.101034
-0.0668899
0.0952923
-0.0631089
0.0898721
-0.059542
0.0847628
-0.056179
0.0799403
-0.0530059
0.0753872
-0.050009
0.0710967
-0.0471882
0.0670445
-0.0445195
0.0632273
-0.0420097
0.0596243
-0.0396381
0.0562216
-0.0373977
0.0530125
-0.0352886
0.0499864
-0.033297
0.0471295
-0.0314194
0.0444385
-0.0296488
0.0418961
-0.0279784
0.0394953
-0.0263979
0.0372361
-0.024914
0.0351013
-0.0235096
0.0330873
-0.0221846
0.0311853
-0.020937
0.0293928
-0.0197594
0.0277008
-0.0186479
0.0261048
-0.0175999
0.024599
-0.0166112
0.0231778
-0.0156782
0.021837
-0.0147983
0.0205723
-0.0139681
0.0193783
-0.0131849
0.0182524
-0.0124465
0.0171894
-0.0117493
0.0161865
-0.011092
0.0152406
-0.0104721
0.0143479
-0.00988701
0.0135052
-0.00933506
0.0127103
-0.00881451
0.0119599
-0.00832332
0.0112524
-0.00786043
0.0105843
-0.00742311
0.00995385
-0.00701099
0.00935937
-0.00662233
0.00879776
-0.00625549
0.00826834
-0.00590972
0.00776862
-0.00558331
0.00729728
-0.00527595
0.00685228
-0.00498557
0.00643213
-0.0047118
0.00603596
-0.00445407
0.00566192
-0.00421084
0.00530901
-0.00398132
0.00497621
-0.00376559
0.00466178
-0.00356185
0.00436535
-0.00336996
0.00408519
-0.00318904
0.00382136
-0.0030194
0.00357206
-0.0028589
0.00333687
-0.00270838
0.00311505
-0.00256662
0.00290528
-0.00243375
0.00270768
-0.00230874
0.00252106
-0.00219154
0.00234472
-0.00208168
0.00217816
-0.00197903
0.00202104
-0.00188311
0.00187234
-0.00179383
0.00173172
-0.00171065
0.00159894
-0.00163394
0.00147321
-0.0015631
0.0013544
-0.00149811
0.00124138
-0.0014386
0.0011344
-0.00138493
0.00103261
-0.0013364
0.000936076
-0.00129351
0.000843361
-0.00125531
0.000755094
-0.00122244
0.000669563
-0.00119514
0.000586977
-0.00117223
0.000506036
-0.00116101
0.000425456
-0.00114996
0.000343594
-0.00117054
0.000253452
-0.00117402
0.000161521
-0.00127599
5.29807e-05
-0.00133039
-0.00147514
0.24556
-0.146039
0.231588
-0.137579
0.218427
-0.129664
0.206019
-0.122235
0.19432
-0.115261
0.18329
-0.108705
0.172885
-0.102535
0.163074
-0.0967275
0.15382
-0.0912547
0.145086
-0.0860925
0.136854
-0.0812307
0.129085
-0.0766382
0.121754
-0.0723082
0.114838
-0.0682233
0.108316
-0.0643698
0.10216
-0.0607339
0.0963529
-0.0573018
0.0908775
-0.0540665
0.0857094
-0.0510109
0.0808316
-0.0481281
0.0762371
-0.0454144
0.0718948
-0.0428459
0.0678012
-0.0404259
0.063939
-0.0381476
0.0602911
-0.0359901
0.0568574
-0.033964
0.0536136
-0.0320449
0.050553
-0.0302364
0.0476686
-0.0285349
0.044943
-0.0269233
0.0423695
-0.0254049
0.039948
-0.0239763
0.0376577
-0.0226237
0.0355022
-0.021354
0.0334658
-0.0201482
0.0315448
-0.019016
0.0297319
-0.0179466
0.0280219
-0.0169379
0.0264084
-0.0159863
0.0248856
-0.0150885
0.0234489
-0.0142414
0.0220937
-0.0134431
0.0208148
-0.0126892
0.0196081
-0.0119782
0.0184694
-0.0113079
0.0173954
-0.0106752
0.0163814
-0.0100781
0.0154248
-0.0095155
0.0145221
-0.00898429
0.0136705
-0.00848349
0.0128669
-0.00801096
0.0121087
-0.00756504
0.0113929
-0.00714466
0.0107179
-0.00674811
0.0100809
-0.00637398
0.00947958
-0.00602101
0.00891209
-0.005688
0.00837681
-0.00537443
0.00787161
-0.00507812
0.00739445
-0.00479879
0.00694459
-0.00453571
0.00652041
-0.00428762
0.00611969
-0.00405335
0.00574155
-0.00383269
0.00538481
-0.00362459
0.00504822
-0.003429
0.00473034
-0.00324397
0.00443045
-0.00307007
0.00414791
-0.0029065
0.00388093
-0.00275242
0.00362889
-0.00260687
0.00339118
-0.00247066
0.00316693
-0.00234238
0.00295508
-0.00222189
0.00275505
-0.00210871
0.0025663
-0.0020028
0.00238813
-0.0019035
0.00221984
-0.00181074
0.00206087
-0.00172414
0.00191059
-0.00164355
0.00176876
-0.00156882
0.00163431
-0.00149949
0.00150726
-0.00143605
0.00138684
-0.00137769
0.00127295
-0.00132471
0.00116472
-0.0012767
0.00106178
-0.00123346
0.000963578
-0.00119531
0.000870187
-0.00116192
0.000780747
-0.001133
0.000694739
-0.00110913
0.00061176
-0.00108925
0.000529627
-0.00107888
0.00044782
-0.00106815
0.000366415
-0.00108913
0.000275403
-0.00108301
0.000186366
-0.00118695
6.30955e-05
-0.00120712
-0.00141205
0.247992
-0.131065
0.233889
-0.123476
0.220593
-0.116369
0.208065
-0.109706
0.196251
-0.103447
0.18511
-0.0975645
0.174609
-0.0920335
0.164698
-0.0868166
0.15535
-0.0819068
0.146538
-0.07728
0.138216
-0.0729087
0.13037
-0.0687929
0.122971
-0.0649085
0.115989
-0.0612416
0.109401
-0.0577819
0.103186
-0.0545191
0.0973203
-0.0514359
0.0917895
-0.0485358
0.0865697
-0.0457911
0.081647
-0.0432053
0.0770006
-0.0407681
0.0726203
-0.0384656
0.0684852
-0.0362909
0.0645851
-0.0342475
0.0609061
-0.0323111
0.0574309
-0.0304888
0.0541561
-0.0287701
0.0510678
-0.0271481
0.0481488
-0.0256159
0.0453991
-0.0241736
0.0428083
-0.0228141
0.0403592
-0.0215272
0.0380489
-0.0203134
0.0358664
-0.0191716
0.0338114
-0.0180932
0.0318711
-0.0170756
0.0300406
-0.0161161
0.0283134
-0.0152107
0.0266839
-0.0143568
0.0251463
-0.0135509
0.0236961
-0.0127912
0.0223271
-0.012074
0.0210355
-0.0113976
0.0198174
-0.0107601
0.0186674
-0.0101579
0.0175823
-0.00959012
0.016559
-0.00905484
0.0155928
-0.00854925
0.0146814
-0.00807296
0.0138212
-0.0076233
0.0130098
-0.00719949
0.0122439
-0.00679916
0.0115216
-0.00642234
0.0108393
-0.00606588
0.0101959
-0.00573052
0.00958863
-0.00541377
0.00901602
-0.00511539
0.00847519
-0.0048336
0.00796516
-0.00456809
0.00748387
-0.00431749
0.00702959
-0.00408143
0.00660055
-0.00385858
0.00619608
-0.00364888
0.00581446
-0.00345107
0.00545436
-0.00326449
0.00511428
-0.00308892
0.00479363
-0.00292332
0.00449103
-0.00276748
0.00420537
-0.00262084
0.00393552
-0.00248256
0.0036813
-0.00235265
0.00344117
-0.00223054
0.00321454
-0.00211575
0.00300052
-0.00200787
0.00279874
-0.00190693
0.00260813
-0.00181219
0.00242811
-0.00172348
0.00225808
-0.00164071
0.0020976
-0.00156366
0.00194594
-0.00149189
0.00180252
-0.00142541
0.00166705
-0.00136402
0.0015385
-0.0013075
0.00141691
-0.0012561
0.0013015
-0.00120929
0.00119214
-0.00116734
0.00108849
-0.0011298
0.00098969
-0.00109652
0.000895273
-0.0010675
0.000804784
-0.00104251
0.000717634
-0.00102198
0.000633402
-0.00100502
0.000551649
-0.000997123
0.000469796
-0.000986298
0.000388368
-0.00100771
0.000300248
-0.00099489
0.000210272
-0.00109698
8.09536e-05
-0.0010778
-0.0013311
0.250179
-0.115957
0.235951
-0.109248
0.222542
-0.102959
0.209903
-0.0970669
0.197985
-0.0915298
0.186751
-0.0863308
0.17615
-0.0814318
0.166156
-0.0768227
0.156728
-0.0724794
0.147833
-0.0683846
0.139445
-0.0645211
0.131531
-0.0608785
0.124062
-0.0574397
0.117018
-0.0541977
0.110372
-0.0511353
0.104102
-0.048249
0.0981909
-0.0455251
0.0926083
-0.0429532
0.0873435
-0.0405264
0.0823793
-0.0382411
0.0776915
-0.0360803
0.0732697
-0.0340438
0.0691002
-0.0321213
0.0651655
-0.0303128
0.0614519
-0.0285976
0.0579526
-0.0269894
0.0546467
-0.0254642
0.0515273
-0.0240288
0.0485876
-0.0226762
0.0458137
-0.0213997
0.0431936
-0.020194
0.0407234
-0.0190569
0.0383948
-0.0179848
0.0361961
-0.0169728
0.0341217
-0.0160189
0.0321648
-0.0151187
0.0303181
-0.0142694
0.0285761
-0.0134687
0.0269321
-0.0127129
0.0253814
-0.0120002
0.0239178
-0.0113276
0.022537
-0.0106933
0.0212344
-0.0100949
0.0200049
-0.00953066
0.0188452
-0.0089982
0.0177508
-0.00849573
0.0167179
-0.00802194
0.0157441
-0.00757541
0.0148245
-0.00715337
0.013957
-0.00675585
0.0131383
-0.00638078
0.012366
-0.00602678
0.0116367
-0.00569312
0.0109494
-0.0053785
0.0103003
-0.00508149
0.00968798
-0.00480141
0.00910985
-0.00453726
0.00856424
-0.00428799
0.00804973
-0.00405358
0.00756428
-0.00383205
0.00710584
-0.00362299
0.00667369
-0.00342642
0.00626547
-0.00324067
0.00588044
-0.00306604
0.0055172
-0.00290125
0.0051741
-0.00274582
0.00485069
-0.00259991
0.0045453
-0.00246208
0.004257
-0.00233254
0.00398512
-0.00221068
0.00372849
-0.00209602
0.00348627
-0.00198832
0.00325765
-0.00188713
0.003042
-0.00179223
0.00283828
-0.00170321
0.00264595
-0.00161985
0.00246447
-0.001542
0.00229306
-0.00146929
0.00213087
-0.00140147
0.00197792
-0.00133895
0.00183307
-0.00128057
0.0016964
-0.00122735
0.00156706
-0.00117816
0.00144442
-0.00113346
0.00132802
-0.00109289
0.0012177
-0.00105702
0.00111264
-0.00102475
0.00101283
-0.000996709
0.000917401
-0.000972066
0.000826403
-0.000951515
0.000739467
-0.000935048
0.000654268
-0.000919822
0.000571889
-0.000914744
0.000489899
-0.000904307
0.000408248
-0.000926055
0.000321602
-0.000908245
0.000232961
-0.00100834
0.000103495
-0.000948339
-0.0012276
0.252114
-0.100739
0.237775
-0.0949097
0.224262
-0.0894462
0.211526
-0.0843309
0.199519
-0.0795225
0.188196
-0.0750072
0.177518
-0.0707541
0.167448
-0.0667529
0.157948
-0.0629795
0.148984
-0.0594201
0.14053
-0.0560678
0.132554
-0.0529019
0.12503
-0.0499156
0.11793
-0.0470985
0.111235
-0.0444403
0.104917
-0.0419306
0.0989543
-0.0395625
0.0933303
-0.0373292
0.0880275
-0.0352236
0.0830219
-0.0332355
0.0782995
-0.0313579
0.0738466
-0.0295909
0.069646
-0.0279206
0.0656767
-0.0263436
0.061939
-0.0248598
0.0584086
-0.023459
0.0550785
-0.0221341
0.0519391
-0.0208894
0.0489752
-0.0197124
0.0461779
-0.0186023
0.0435398
-0.0175558
0.0410509
-0.0165681
0.0387023
-0.0156362
0.036487
-0.0147576
0.0343968
-0.0139286
0.0324247
-0.0131466
0.0305642
-0.0124089
0.0288083
-0.0117128
0.027152
-0.0110565
0.0255888
-0.0104371
0.0241145
-0.00985326
0.0227231
-0.00930186
0.0214104
-0.00878222
0.0201716
-0.0082919
0.019003
-0.00782955
0.0179003