/*--------------------------------*- C++ -*----------------------------------*\
  =========                 |
  \\      /  F ield         | OpenFOAM: The Open Source CFD Toolbox
   \\    /   O peration     | Website:  https://openfoam.org
    \\  /    A nd           | Version:  9
     \\/     M anipulation  |
\*---------------------------------------------------------------------------*/
FoamFile
{
    format      ascii;
    class       volScalarField;
    location    "750";
    object      ReThetat;
}
// * * * * * * * * * * * * * * * * * * * * * * * * * * * * * * * * * * * * * //

dimensions      [0 0 0 0 0 0 0];

internalField   nonuniform List<scalar> 
13446
(
901.62
899.988
1116.87
896.679
1167.61
1334.9
1158.34
1097.71
893.083
1329.99
1410.76
1163.12
1099.95
1090.91
892.532
1113.84
1437.93
1170.18
1101.8
1091.58
1090.28
889.013
1173.52
1411.15
1168.64
1104.48
1092.54
1090.69
1089.29
1087.09
1084.59
1082.08
1079.57
1077.06
1074.53
1071.99
1069.43
1066.85
1064.25
1061.64
1059.01
1056.37
1053.72
1051.06
1048.39
1045.71
1043.02
1040.33
1037.62
1034.91
1032.19
1029.47
884.405
1188.1
1423.44
1170.95
1106.26
1093.3
1091.16
1089.79
1087.62
1085.11
1082.58
1080.06
1077.52
1074.96
1072.38
1069.79
1067.17
1064.52
1061.85
1059.16
1056.45
1053.71
1050.95
1048.17
1045.37
1042.54
1039.68
1036.8
1033.88
1030.94
1027.95
1024.93
1021.86
632.287
626.588
622.977
621.016
619.003
616.912
614.807
612.58
610.415
608.385
606.068
603.405
600.746
598.132
595.498
592.733
589.692
586.233
582.951
579.766
577.959
569.223
556.003
533.265
510.127
499.065
886.081
1126.3
1337.62
1173.53
1109.68
1094.28
1091.65
1090.34
1088.22
1085.71
1083.16
1080.61
1078.05
1075.47
1072.86
1070.22
1067.56
1064.86
1062.14
1059.39
1056.6
1053.78
1050.92
1048.03
1045.1
1042.13
1039.11
1036.04
1032.91
1029.73
1026.47
1023.12
1019.67
1016.12
607.279
605.762
604.149
603.604
603.702
603.257
602.787
602.064
601.032
599.995
599.024
597.608
595.728
593.806
591.855
589.765
587.381
584.594
581.424
578.522
575.741
574.042
566.67
554.679
532.518
509.864
499.046
883.499
1180.88
1411.53
1186.23
1111.45
1094.93
1092.19
1090.92
1088.84
1086.34
1083.77
1081.2
1078.62
1076.01
1073.37
1070.7
1068
1065.25
1062.48
1059.66
1056.79
1053.88
1050.92
1047.91
1044.84
1041.71
1038.5
1035.22
1031.84
1028.37
1024.78
1021.05
1017.15
1013.02
1008.65
1003.97
576.775
576.701
579.748
580.35
582.7
584.84
586.301
587.711
588.463
588.745
588.957
589.131
588.651
587.628
586.575
585.368
583.803
581.744
579.221
576.439
574.032
571.687
570.097
563.903
553.328
531.726
509.558
499.026
882.681
1111.46
1335.3
1191.64
1113.02
1095.75
1092.79
1091.53
1089.51
1087.01
1084.42
1081.83
1079.23
1076.6
1073.93
1071.22
1068.47
1065.68
1062.85
1059.95
1056.99
1053.96
1050.86
1047.68
1044.42
1041.06
1037.59
1034.01
1030.28
1026.4
1022.34
1018.06
1013.44
1008.47
1003.13
997.373
991.112
605.684
592.587
581.21
571.361
562.593
555.064
549.691
546.841
548.681
553.536
555.357
561.281
565.032
568.788
572.077
574.354
576.096
577.595
578.876
579.354
579.35
579.299
578.805
577.647
575.873
573.722
571.482
569.631
567.677
566.135
561.058
551.86
530.757
509.216
499.01
880.213
1159.3
1370.26
1197.06
1116.24
1097.03
1093.46
1092.18
1090.22
1087.73
1085.12
1082.51
1079.89
1077.22
1074.51
1071.75
1068.94
1066.07
1063.14
1060.11
1056.97
1053.75
1050.42
1046.98
1043.41
1039.69
1035.82
1031.77
1027.51
1023.02
1018.26
1013.2
1007.81
1002.03
995.844
989.186
982.016
974.247
965.856
602.336
589.707
578.525
568.632
559.95
552.603
546.611
541.931
538.406
535.228
533.102
533.278
541.094
544.629
551.091
555.643
559.747
563.06
565.757
568.12
569.717
570.959
571.95
572.02
571.166
569.754
568.178
566.634
565.344
563.695
562.15
557.993
550.26
529.655
508.817
498.998
879.237
1108.51
1291.74
1195.35
1121.08
1098.64
1094.19
1092.86
1090.97
1088.49
1085.86
1083.22
1080.56
1077.82
1075
1072.12
1069.17
1066.15
1063.03
1059.83
1056.53
1053.11
1049.57
1045.89
1042.04
1038.02
1033.81
1029.37
1024.68
1019.72
1014.44
1008.81
1002.79
996.349
989.433
982
974.007
965.412
956.182
946.223
935.539
675.969
659.919
644.262
629.394
615.416
602.34
590.18
579.101
569.097
560.223
552.617
546.396
541.581
538.002
535.396
533.53
531.995
530.382
527.987
526.786
534.545
538.478
545.125
549.521
553.264
556.978
559.999
562.562
564.378
564.803
564.309
563.523
562.769
561.991
561.168
559.705
558.132
554.697
548.547
528.344
508.368
498.988
877.512
1145.02
1373.16
1213.62
1124.01
1099.79
1094.94
1093.59
1091.75
1089.28
1086.59
1083.85
1081.08
1078.25
1075.37
1072.41
1069.36
1066.23
1063
1059.67
1056.21
1052.61
1048.87
1044.95
1040.85
1036.54
1031.99
1027.19
1022.1
1016.69
1010.92
1004.75
998.164
991.101
983.527
975.403
966.688
957.345
947.34
936.653
925.275
913.133
900.336
886.879
872.686
662.89
647.352
632.421
618.36
605.198
592.953
581.697
571.525
562.542
554.836
548.54
543.684
540.126
537.518
535.506
533.772
532.13
530.576
529.171
527.751
525.099
523.512
531.811
535.279
540.362
546.053
550.495
553.963
556.194
556.997
557.239
557.458
557.67
557.562
557.035
555.664
554.074
551.235
546.643
526.814
507.875
498.977
876.474
1104.59
1330.19
1222.88
1127.17
1101.29
1095.79
1094.34
1092.51
1089.99
1087.24
1084.46
1081.64
1078.76
1075.8
1072.76
1069.63
1066.41
1063.07
1059.59
1055.98
1052.21
1048.26
1044.13
1039.78
1035.19
1030.34
1025.19
1019.72
1013.89
1007.67
1001.03
993.912
986.291
978.133
969.393
960.038
950.042
939.377
928.036
916.014
903.327
889.975
875.981
861.41
846.214
830.504
651.775
636.777
622.607
609.323
596.931
585.5
575.148
565.991
558.107
551.577
546.548
542.897
540.274
538.215
536.414
534.72
533.088
531.495
529.922
528.389
527.098
525.78
522.795
522.164
528.498
536.109
540.847
544.501
547.114
548.859
550.414
551.848
552.899
553.218
552.837
551.544
549.998
547.512
544.328
525.03
507.313
498.965
875
1148.84
1428.65
1239.99
1133.23
1103.32
1096.67
1095.03
1093.25
1090.75
1087.97
1085.13
1082.26
1079.32
1076.3
1073.2
1069.99
1066.66
1063.2
1059.6
1055.84
1051.9
1047.77
1043.43
1038.85
1034
1028.85
1023.38
1017.56
1011.35
1004.71
997.619
990.032
981.91
973.218
963.926
954.003
943.432
932.202
920.308
907.751
894.544
880.707
866.288
851.331
835.897
820.066
803.8
787.318
770.699
754.001
737.304
720.697
704.273
688.128
672.346
657.017
642.207
628.067
614.658
602.056
590.372
579.742
570.296
562.111
555.273
549.899
546.047
543.217
540.948
538.967
537.148
535.435
533.801
532.231
530.714
529.233
527.738
526.243
525.094
523.648
520.316
527.169
530.04
533.969
537.761
541.195
544.268
546.681
548.226
548.767
548.51
547.369
545.936
543.596
541.542
522.96
506.715
498.956
874.179
1123.36
1401.92
1256.27
1140.15
1105.35
1097.54
1095.76
1094.04
1091.56
1088.75
1085.87
1082.95
1079.96
1076.89
1073.71
1070.41
1066.99
1063.42
1059.7
1055.8
1051.71
1047.4
1042.86
1038.06
1032.95
1027.53
1021.77
1015.62
1009.05
1002.03
994.533
986.508
977.926
968.757
958.969
948.546
937.475
925.754
913.378
900.355
886.71
872.483
857.715
842.452
826.765
810.721
794.403
777.89
761.259
744.603
728.009
711.568
695.369
679.495
664.034
649.073
634.706
621.02
608.117
596.109
585.123
575.299
566.718
559.447
553.672
549.444
546.281
543.753
541.597
539.668
537.887
536.211
534.608
533.058
531.545
530.061
528.606
527.177
525.689
524.251
523.297
520.615
519.496
524.171
529.563
534.565
538.631
541.553
543.37
544.136
544.112
543.216
541.922
539.744
537.742
520.639
506.067
498.947
871.149
1346.36
1456.13
1288.15
1146.35
1106.9
1098.45
1096.55
1094.88
1092.43
1089.6
1086.68
1083.71
1080.68
1077.54
1074.29
1070.91
1067.4
1063.73
1059.89
1055.86
1051.62
1047.15
1042.42
1037.4
1032.07
1026.4
1020.35
1013.9
1007
999.633
991.754
983.331
974.333
964.729
954.501
943.634
932.125
919.969
907.172
893.747
879.736
865.175
850.109
834.6
818.716
802.522
786.105
769.542
752.921
736.326
719.846
703.569
687.577
671.96
656.804
642.2
628.238
615.018
602.651
591.257
580.974
571.922
564.126
557.795
553.075
549.516
546.697
544.34
542.276
540.405
538.664
537.015
535.431
533.894
532.394
530.92
529.465
528.023
526.607
525.2
523.685
522.521
521.092
518.076
522.94
528.385
532.853
536.133
538.311
539.451
539.766
539.147
537.975
535.956
533.382
518.188
505.393
498.941
872.111
1127.03
1419
1332.24
1158.55
1109.28
1099.38
1097.38
1095.77
1093.36
1090.51
1087.55
1084.55
1081.46
1078.26
1074.95
1071.5
1067.9
1064.14
1060.19
1056.03
1051.66
1047.03
1042.11
1036.9
1031.35
1025.44
1019.13
1012.4
1005.2
997.507
989.281
980.495
971.114
961.121
950.498
939.239
927.338
914.798
901.628
887.86
873.536
858.688
843.374
827.66
811.61
795.304
778.814
762.229
745.631
729.106
712.743
696.623
680.834
665.462
650.598
636.33
622.757
609.984
598.131
587.33
577.723
569.371
562.35
557.022
552.983
549.815
547.214
544.983
542.996
541.175
539.469
537.844
536.279
534.757
533.267
531.802
530.354
528.921
527.495
526.075
524.685
523.236
521.837
520.843
518.078
522.207
526.833
530.585
533.263
534.857
535.526
535.161
534.093
532.217
528.909
515.675
504.685
498.935
871.208
1114.13
1402.86
1411.61
1175.44
1111.59
1100.28
1098.25
1096.72
1094.35
1091.49
1088.51
1085.46
1082.32
1079.07
1075.7
1072.18
1068.5
1064.64
1060.59
1056.32
1051.81
1047.02
1041.94
1036.55
1030.8
1024.67
1018.12
1011.12
1003.65
995.651
987.109
977.991
968.264
957.918
946.941
935.33
923.08
910.196
896.704
882.641
868.04
852.944
837.423
821.533
805.349
788.947
772.405
755.812
739.244
722.793
706.541
690.571
674.972
659.834
645.244
631.296
618.094
605.752
594.397
584.175
575.198
567.484
561.401
556.759
553.155
550.251
547.81
545.677
543.754
541.976
540.301
538.7
537.153
535.645
534.166
532.709
531.268
529.838
528.417
527.003
525.587
524.184
522.782
521.286
520.18
517.544
521.194
525.2
528.339
530.361
531.361
531.241
530.289
528.528
524.362
513.141
503.954
498.931
866.324
1178.31
1445.82
1469.28
1187.5
1113.65
1101.35
1099.22
1097.74
1095.42
1092.57
1089.54
1086.44
1083.26
1079.96
1076.53
1072.95
1069.19
1065.25
1061.1
1056.72
1052.08
1047.16
1041.93
1036.36
1030.42
1024.08
1017.31
1010.07
1002.34
994.067
985.235
975.807
965.772
955.109
943.817
931.887
919.32
906.135
892.362
878.033
863.186
847.883
832.18
816.14
799.845
783.365
766.786
750.186
733.654
717.273
701.126
685.301
669.883
654.962
640.629
626.985
614.138
602.21
591.336
581.67
573.242
566.268
560.904
556.771
553.491
550.786
548.469
546.416
544.548
542.809
541.163
539.584
538.054
536.56
535.092
533.643
532.208
530.783
529.364
527.949
526.537
525.124
523.708
522.312
520.825
519.666
517.111
520.204
523.539
525.934
527.264
527.409
526.597
524.889
519.782
510.591
503.193
498.927
868.52
1218.43
1439.48
1470.11
1194.72
1117.43
1103.05
1100.31
1098.8
1096.55
1093.71
1090.65
1087.51
1084.29
1080.95
1077.46
1073.81
1069.99
1065.97
1061.73
1057.24
1052.48
1047.43
1042.06
1036.33
1030.22
1023.69
1016.71
1009.25
1001.28
992.754
983.651
973.95
963.631
952.685
941.104
928.887
916.039
902.585
888.561
873.995
858.937
843.449
827.585
811.42
795.026
778.484
761.871
745.274
728.778
712.463
696.416
680.723
665.471
650.753
636.663
623.305
610.794
599.261
588.852
579.699
571.786
565.555
560.756
556.996
553.952
551.399
549.182
547.198
545.378
543.675
542.056
540.498
538.984
537.503
536.045
534.604
533.176
531.755
530.338
528.923
527.508
526.091
524.671
523.239
521.816
520.306
519.078
516.581
519.086
521.649
523.286
523.706
523.043
521.278
515.47
508.36
502.41
498.907
868.539
1168.31
1433.98
1469.89
1202.46
1121.65
1104.97
1101.49
1099.92
1097.76
1094.93
1091.85
1088.67
1085.41
1082.02
1078.48
1074.78
1070.89
1066.79
1062.47
1057.88
1053.02
1047.85
1042.34
1036.47
1030.2
1023.49
1016.32
1008.66
1000.46
991.711
982.364
972.412
961.835
950.631
938.791
926.312
913.213
899.524
885.274
870.497
855.254
839.6
823.594
807.317
790.838
774.24
757.6
741.008
724.542
708.287
692.331
676.761
661.665
647.135
633.27
620.181
607.988
596.832
586.869
578.154
570.874
565.223
560.844
557.366
554.51
552.081
549.949
548.024
546.247
544.575
542.981
541.442
539.943
538.474
537.026
535.593
534.17
532.753
531.338
529.922
528.503
527.079
525.646
524.203
522.74
521.272
519.71
518.376
515.899
517.736
519.5
520.17
519.624
517.715
512.833
506.511
501.59
498.854
868.275
1148.5
1431.09
1469.28
1211.54
1126.51
1107.16
1102.79
1101.12
1099.03
1096.24
1093.13
1089.93
1086.62
1083.19
1079.61
1075.85
1071.9
1067.74
1063.34
1058.66
1053.7
1048.42
1042.79
1036.78
1030.36
1023.49
1016.15
1008.3
999.903
990.932
981.368
971.189
960.383
948.942
936.866
924.154
910.83
896.926
882.471
867.509
852.099
836.294
820.168
803.787
787.234
770.584
753.921
737.33
720.891
704.692
688.818
673.358
658.402
644.043
630.387
617.548
605.657
594.857
585.311
576.986
570.309
565.145
561.107
557.857
555.153
552.828
550.766
548.892
547.153
545.51
543.938
542.416
540.932
539.475
538.036
536.61
535.191
533.775
532.359
530.939
529.513
528.077
526.628
525.162
523.674
522.154
520.611
518.96
517.476
514.964
516.08
516.856
516.292
514.41
510.151
504.601
500.807
498.782
868.1
1132.57
1426.83
1468.2
1222.92
1132.33
1109.67
1104.21
1102.39
1100.38
1097.63
1094.52
1091.28
1087.94
1084.47
1080.85
1077.04
1073.04
1068.81
1064.33
1059.57
1054.52
1049.14
1043.4
1037.27
1030.7
1023.7
1016.2
1008.17
999.595
990.431
980.666
970.279
959.266
947.614
935.32
922.4
908.877
894.78
880.14
865.012
849.451
833.511
817.272
800.798
784.175
767.477
750.79
734.196
717.78
701.629
685.829
670.466
655.634
641.431
627.965
615.359
603.749
593.287
584.105
576.213
570.053
565.288
561.523
558.456
555.874
553.632
551.63
549.8
548.094
546.477
544.925
543.42
541.949
540.501
539.069
537.646
536.228
534.81
533.388
531.959
530.519
529.065
527.592
526.095
524.569
523.007
521.396
519.737
517.952
516.259
513.668
513.932
512.878
511.166
507.45
502.764
500.204
498.729
868.014
1112.8
1369.04
1463.47
1236.5
1138.99
1112.54
1105.8
1103.74
1101.81
1099.12
1096
1092.73
1089.36
1085.86
1082.2
1078.35
1074.29
1070.01
1065.46
1060.63
1055.5
1050.02
1044.18
1037.93
1031.26
1024.11
1016.46
1008.28
999.545
990.207
980.261
969.688
958.485
946.643
934.157
921.047
907.343
893.073
878.267
862.989
847.286
831.228
814.885
798.325
781.636
764.891
748.18
731.579
715.18
699.066
683.324
668.043
653.32
639.257
625.966
613.573
602.222
592.078
583.197
575.823
570.087
565.621
562.061
559.135
556.651
554.48
552.531
550.74
549.064
547.47
545.935
544.442
542.979
541.537
540.106
538.682
537.258
535.831
534.396
532.949
531.486
530.004
528.497
526.96
525.387
523.768
522.096
520.353
518.534
516.565
514.618
511.911
509.4
507.986
504.865
501.176
499.899
498.72
867.28
1099.29
1317.42
1455.37
1255.5
1147.39
1115.95
1107.6
1105.19
1103.32
1100.72
1097.61
1094.31
1090.91
1087.37
1083.68
1079.79
1075.69
1071.34
1066.74
1061.85
1056.64
1051.09
1045.15
1038.8
1032.02
1024.75
1016.97
1008.66
999.761
990.27
980.163
969.43
958.055
946.039
933.381
920.1
906.233
891.8
876.846
861.431
845.602
829.434
812.99
796.352
779.594
762.805
746.061
729.449
713.056
696.968
681.272
666.06
651.431
637.488
624.35
612.15
601.035
591.18
582.561
575.619
570.239
566.031
562.652
559.852
557.458
555.35
553.446
551.688
550.035
548.457
546.932
545.445
543.983
542.537
541.099
539.664
538.225
536.779
535.32
533.846
532.35
530.829
529.278
527.692
526.063
524.383
522.642
520.827
518.921
516.907
514.714
512.427
509.648
506.363
503.008
500.226
499.896
498.675
866.876
1153.94
1431.27
1466.78
1282.1
1157.99
1119.87
1109.62
1106.76
1104.94
1102.43
1099.34
1096.02
1092.59
1089.03
1085.3
1081.37
1077.23
1072.84
1068.19
1063.24
1057.96
1052.34
1046.32
1039.88
1032.99
1025.62
1017.73
1009.29
1000.26
990.627
980.373
969.49
957.963
945.788
932.975
919.546
905.527
890.948
875.86
860.315
844.366
828.092
811.553
794.836
778.012
761.171
744.39
727.759
711.362
695.286
679.621
664.46
649.903
636.06
623.054
611.023
600.119
590.517
582.129
575.561
570.487
566.496
563.267
560.568
558.243
556.182
554.308
552.57
550.927
549.353
547.827
546.334
544.863
543.403
541.948
540.491
539.027
537.552
536.061
534.549
533.012
531.446
529.847
528.208
526.522
524.783
522.98
521.099
519.124
517.027
514.782
512.318
509.584
506.546
502.262
500.973
499.974
498.537
867.462
1108.23
1420.83
1463.71
1322.65
1171.93
1124.21
1111.73
1108.35
1106.54
1104.14
1101.08
1097.74
1094.28
1090.69
1086.93
1082.97
1078.79
1074.36
1069.65
1064.65
1059.31
1053.61
1047.52
1041
1034.02
1026.55
1018.55
1010
1000.85
991.09
980.704
969.686
958.021
945.703
932.748
919.183
905.03
890.319
875.107
859.442
843.385
827.012
810.385
793.591
776.702
759.809
742.988
726.331
709.922
693.849
678.202
663.077
648.578
634.816
621.919
610.031
599.313
589.903
581.859
575.584
570.723
566.88
563.75
561.117
558.835
556.8
554.942
553.209
551.566
549.986
548.449
546.942
545.452
543.971
542.491
541.007
539.513
538.005
536.479
534.93
533.354
531.747
530.106
528.423
526.694
524.909
523.058
521.128
519.099
516.947
514.635
512.112
509.305
506.066
502.033
500.5
499.456
498.354
865.664
1301.34
1444.83
1464.93
1351.88
1180.69
1126.6
1112.81
1109.11
1107.29
1104.94
1101.89
1098.54
1095.05
1091.43
1087.64
1083.64
1079.43
1074.95
1070.19
1065.14
1059.74
1053.98
1047.82
1041.23
1034.18
1026.62
1018.53
1009.88
1000.64
990.778
980.289
969.167
957.397
944.974
931.915
918.249
903.999
889.195
873.897
858.151
842.025
825.583
808.904
792.058
775.135
758.211
741.373
724.708
708.303
692.244
676.624
661.541
647.098
633.411
620.611
608.847
598.287
589.031
581.263
575.218
570.523
566.793
563.739
561.158
558.91
556.898
555.053
553.326
551.683
550.099
548.555
547.035
545.53
544.032
542.533
541.029
539.514
537.985
536.436
534.865
533.269
531.642
529.98
528.277
526.526
524.718
522.841
520.881
518.82
516.631
514.279
511.709
508.862
505.537
501.653
499.981
498.949
498.163
867.478
1107.31
1422.14
1464.09
1322.89
1171.89
1124.09
1111.57
1108.17
1106.33
1103.89
1100.79
1097.41
1093.9
1090.25
1086.43
1082.41
1078.16
1073.64
1068.84
1063.74
1058.3
1052.49
1046.28
1039.64
1032.53
1024.92
1016.78
1008.07
998.774
988.863
978.323
967.152
955.336
942.87
929.773
916.073
901.796
886.968
871.653
855.895
839.764
823.322
806.649
789.816
772.909
756.007
739.196
722.564
706.197
690.184
674.615
659.591
645.216
631.606
618.897
607.237
596.801
587.663
580.083
574.193
569.611
565.961
562.963
560.422
558.202
556.209
554.379
552.664
551.03
549.452
547.913
546.399
544.9
543.408
541.917
540.42
538.915
537.395
535.858
534.299
532.716
531.102
529.451
527.754
526.004
524.192
522.31
520.342
518.271
516.07
513.704
511.115
508.253
504.87
501.198
499.147
498.123
497.839
867.025
1142.31
1424.22
1465.32
1282.27
1157.83
1119.61
1109.31
1106.39
1104.5
1101.93
1098.76
1095.35
1091.82
1088.15
1084.3
1080.25
1075.97
1071.42
1066.59
1061.46
1055.99
1050.14
1043.9
1037.23
1030.09
1022.45
1014.28
1005.54
996.226
986.298
975.744
964.563
952.743
940.277
927.185
913.495
899.232
884.425
869.133
853.403
837.304
820.898
804.263
787.471
770.607
753.75
736.985
720.401
704.082
688.12
672.604
657.634
643.316
629.77
617.13
605.547
595.196
586.141
578.679
572.888
568.381
564.784
561.824
559.308
557.106
555.125
553.302
551.592
549.963
548.39
546.857
545.349
543.857
542.373
540.89
539.403
537.909
536.401
534.877
533.333
531.766
530.168
528.534
526.856
525.126
523.337
521.477
519.533
517.481
515.293
512.935
510.35
507.489
504.092
500.717
497.26
496.517
497.209
867.564
1100.06
1360.45
1457.06
1255.62
1147.25
1115.57
1107.15
1104.64
1102.68
1099.97
1096.74
1093.31
1089.77
1086.08
1082.21
1078.13
1073.81
1069.24
1064.39
1059.23
1053.73
1047.87
1041.6
1034.91
1027.75
1020.1
1011.91
1003.17
993.844
983.916
973.364
962.191
950.383
937.935
924.863
911.199
896.966
882.191
866.935
851.244
835.184
818.82
802.227
785.477
768.654
751.841
735.116
718.571
702.29
686.364
670.885
655.953
641.673
628.165
615.567
604.03
593.732
584.726
577.333
571.603
567.142
563.58
560.644
558.145
555.954
553.979
552.159
550.45
548.82
547.246
545.71
544.2
542.706
541.22
539.737
538.249
536.754
535.246
533.723
532.179
530.612
529.017
527.388
525.719
524.005
522.235
520.398
518.48
516.455
514.298
511.969
509.415
506.573
503.23
499.926
496.372
495.601
496.632
867.485
1143.27
1427.76
1467.19
1236.1
1138.48
1112.01
1105.2
1103.02
1100.96
1098.13
1094.86
1091.42
1087.86
1084.15
1080.26
1076.16
1071.83
1067.24
1062.37
1057.19
1051.68
1045.8
1039.52
1032.82
1025.66
1018
1009.82
1001.08
991.769
981.854
971.321
960.171
948.39
935.972
922.936
909.309
895.116
880.384
865.172
849.525
833.509
817.19
800.634
783.926
767.138
750.358
733.665
717.149
700.893
684.99
669.53
654.615
640.351
626.857
614.271
602.748
592.467
583.481
576.111
570.406
565.969
562.426
559.504
557.016
554.83
552.858
551.039
549.328
547.695
546.116
544.576
543.06
541.561
540.069
538.579
537.086
535.585
534.073
532.544
530.996
529.424
527.824
526.191
524.521
522.805
521.035
519.199
517.284
515.268
513.124
510.814
508.285
505.452
502.217
498.694
497.032
495.834
496.274
866.028
1117.25
1340.1
1460
1220.61
1131.48
1109.01
1103.47
1101.49
1099.33
1096.41
1093.1
1089.65
1086.09
1082.37
1078.46
1074.35
1070.01
1065.4
1060.52
1055.34
1049.82
1043.94
1037.66
1030.96
1023.81
1016.16
1008
999.285
989.991
980.104
969.606
958.495
946.756
934.385
921.399
907.823
893.682
879.004
863.844
848.248
832.277
816.005
799.491
782.822
766.067
749.314
732.643
716.143
699.899
684.002
668.544
653.627
639.356
625.852
613.252
601.712
591.412
582.413
575.02
569.306
564.869
561.331
558.415
555.93
553.747
551.775
549.954
548.241
546.603
545.019
543.473
541.951
540.445
538.946
537.449
535.948
534.44
532.92
531.385
529.83
528.251
526.645
525.006
523.329
521.606
519.829
517.987
516.066
514.045
511.896
509.58
507.051
504.209
501.039
497.453
496.2
495.878
496.08
868.45
1124.14
1423.71
1467.33
1211.06
1125.91
1106.39
1101.89
1100.06
1097.78
1094.79
1091.46
1088.01
1084.43
1080.7
1076.79
1072.67
1068.32
1063.71
1058.83
1053.65
1048.13
1042.26
1035.99
1029.31
1022.18
1014.56
1006.42
997.746
988.493
978.653
968.206
957.15
945.47
933.161
920.239
906.728
892.653
878.039
862.94
847.407
831.489
815.265
798.794
782.16
765.434
748.703
732.047
715.552
699.307
683.401
667.927
652.986
638.687
625.146
612.505
600.916
590.564
581.52
574.058
568.299
563.839
560.291
557.372
554.885
552.701
550.728
548.904
547.187
545.544
543.955
542.402
540.874
539.36
537.854
536.349
534.841
533.325
531.798
530.255
528.692
527.105
525.492
523.845
522.16
520.429
518.645
516.794
514.863
512.831
510.672
508.344
505.804
502.948
499.793
496.265
494.445
495.393
495.945
868.632
1161.76
1431.6
1468.5
1201.69
1120.89
1104.09
1100.45
1098.7
1096.32
1093.26
1089.92
1086.47
1082.89
1079.15
1075.24
1071.11
1066.77
1062.16
1057.29
1052.12
1046.62
1040.76
1034.52
1027.86
1020.76
1013.18
1005.09
996.465
987.269
977.492
967.113
956.128
944.523
932.292
919.45
906.019
892.022
877.485
862.458
846.993
831.137
814.965
798.539
781.941
765.241
748.527
731.876
715.377
699.119
683.19
667.683
652.7
638.348
624.747
612.035
600.367
589.925
580.803
573.223
567.382
562.875
559.303
556.371
553.878
551.689
549.712
547.884
546.162
544.515
542.919
541.36
539.825
538.304
536.79
535.278
533.763
532.239
530.704
529.153
527.582
525.988
524.366
522.711
521.017
519.278
517.484
515.625
513.684
511.641
509.468
507.126
504.574
501.709
498.541
494.97
492.72
494.599
495.803
868.495
1217.52
1438.47
1468.77
1193.64
1116.5
1102.05
1099.14
1097.42
1094.94
1091.83
1088.48
1085.03
1081.45
1077.72
1073.8
1069.68
1065.35
1060.75
1055.89
1050.74
1045.26
1039.43
1033.23
1026.6
1019.55
1012.03
1003.99
995.437
986.315
976.616
966.321
955.424
943.91
931.78
919.032
905.69
891.786
877.34
862.395
847.007
831.221
815.108
798.731
782.169
765.493
748.791
732.142
715.629
699.343
683.375
667.819
652.775
638.349
624.661
611.85
600.07
589.504
580.268
572.515
566.553
561.976
558.364
555.411
552.905
550.708
548.726
546.893
545.165
543.512
541.911
540.345
538.803
537.275
535.754
534.234
532.711
531.18
529.637
528.078
526.499
524.896
523.265
521.601
519.899
518.151
516.348
514.479
512.529
510.475
508.29
505.934
503.369
500.498
497.258
494.425
491.501
493.739
495.632
866.287
1178.06
1444.86
1467.88
1186.34
1112.64
1100.24
1097.93
1096.21
1093.64
1090.49
1087.14
1083.69
1080.12
1076.39
1072.48
1068.37
1064.05
1059.47
1054.63
1049.51
1044.07
1038.28
1032.11
1025.54
1018.55
1011.09
1003.13
994.656
985.623
976.02
965.827
955.036
943.632
931.614
918.979
905.747
891.951
877.608
862.759
847.458
831.749
815.702
799.377
782.852
766.203
749.505
732.849
716.315
699.992
683.97
668.348
653.223
638.7
624.902
611.964
600.04
589.312
579.925
571.941
565.816
561.14
557.473
554.489
551.966
549.758
547.767
545.928
544.195
542.535
540.928
539.355
537.806
536.27
534.742
533.214
531.684
530.145
528.594
527.026
525.439
523.829
522.189
520.516
518.805
517.048
515.235
513.357
511.397
509.333
507.137
504.77
502.191
499.347
495.816
493.609
490.532
492.935
495.443
871.176
1113.86
1401.49
1406.13
1173.78
1110.56
1099.1
1096.85
1095.06
1092.41
1089.24
1085.9
1082.46
1078.89
1075.17
1071.27
1067.18
1062.88
1058.32
1053.52
1048.42
1043.02
1037.28
1031.18
1024.67
1017.75
1010.37
1002.5
994.121
985.193
975.703
965.629
954.956
943.682
931.796
919.293
906.191
892.518
878.297
863.556
848.353
832.732
816.754
800.49
784.004
767.379
750.687
734.018
717.452
701.081
684.994
669.288
654.062
639.422
625.488
612.393
600.293
589.365
579.792
571.526
565.172
560.364
556.626
553.603
551.058
548.836
546.836
544.989
543.249
541.583
539.969
538.389
536.833
535.29
533.754
532.219
530.68
529.133
527.574
525.999
524.404
522.784
521.136
519.454
517.734
515.967
514.146
512.258
510.289
508.215
506.008
503.634
501.043
498.164
495.689
493.103
489.701
492.187
495.241
872.077
1126.77
1417.93
1330.32
1157.39
1108.19
1098.11
1095.85
1093.97
1091.26
1088.07
1084.74
1081.31
1077.75
1074.05
1070.17
1066.1
1061.82
1057.3
1052.53
1047.48
1042.13
1036.45
1030.41
1023.98
1017.14
1009.86
1002.09
993.825
985.026
975.662
965.724
955.193
944.065
932.328
919.976
907.022
893.492
879.407
864.793
849.702
834.183
818.285
802.085
785.644
769.043
752.355
735.668
719.067
702.636
686.471
670.664
655.317
640.536
626.44
613.162
600.855
589.69
579.875
571.369
564.699
559.682
555.832
552.753
550.179
547.941
545.93
544.075
542.327
540.654
539.033
537.447
535.883
534.333
532.79
531.247
529.7
528.145
526.578
524.994
523.39
521.762
520.106
518.415
516.685
514.91
513.079
511.183
509.204
507.121
504.906
502.519
499.971
496.698
495.265
492.802
489.06
491.498
495.033
871.102
1346.01
1455
1286.89
1145.28
1105.75
1097.08
1094.92
1092.95
1090.18
1086.99
1083.67
1080.25
1076.71
1073.02
1069.16
1065.12
1060.87
1056.4
1051.67
1046.67
1041.38
1035.77
1029.81
1023.47
1016.73
1009.55
1001.91
993.766
985.107
975.893
966.112
955.743
944.783
933.215
921.037
908.251
894.878
880.948
866.48
851.516
836.111
820.309
804.183
787.793
771.219
754.537
737.827
721.18
704.68
688.423
672.5
657.016
642.073
627.79
614.299
601.75
590.315
580.204
571.442
564.399
559.115
555.108
551.947
549.332
547.072
545.049
543.184
541.429
539.749
538.12
536.527
534.956
533.399
531.847
530.297
528.742
527.179
525.603
524.011
522.399
520.762
519.097
517.397
515.658
513.874
512.035
510.13
508.142
506.051
503.83
501.43
498.846
497.102
495.272
492.685
488.653
490.891
494.821
874.136
1123.1
1401.54
1255.33
1139.11
1104.14
1096.09
1094.03
1092
1089.17
1085.98
1082.68
1079.28
1075.76
1072.09
1068.26
1064.25
1060.04
1055.61
1050.93
1046
1040.78
1035.25
1029.37
1023.13
1016.5
1009.44
1001.94
993.943
985.44
976.393
966.789
956.606
945.828
934.455
922.473
909.879
896.69
882.935
868.634
853.817
838.54
822.85
806.804
790.476
773.934
757.26
740.528
723.833
707.257
690.893
674.838
659.196
644.067
629.572
615.84
603.018
591.275
580.821
571.75
564.263
558.66
554.46
551.19
548.519
546.23
544.191
542.316
540.553
538.865
537.23
535.629
534.051
532.486
530.927
529.368
527.806
526.234
524.651
523.05
521.43
519.784
518.11
516.401
514.653
512.86
511.012
509.1
507.105
505.005
502.774
500.433
497.307
497.086
495.554
492.825
488.527
490.37
494.608
874.957
1148.58
1427.67
1239.29
1132.29
1102.1
1095.15
1093.22
1091.1
1088.24
1085.05
1081.77
1078.39
1074.89
1071.25
1067.45
1063.48
1059.31
1054.94
1050.32
1045.45
1040.31
1034.87
1029.09
1022.97
1016.46
1009.54
1002.18
994.35
986.022
977.169
967.76
957.782
947.215
936.057
924.294
911.917
898.939
885.384
871.27
856.624
841.493
825.931
809.985
793.73
777.228
760.562
743.811
727.059
710.4
693.921
677.72
661.899
646.566
631.833
617.829
604.701
592.613
581.769
572.334
564.338
558.323
553.882
550.483
547.742
545.417
543.358
541.471
539.699
538.004
536.361
534.753
533.167
531.595
530.028
528.461
526.891
525.311
523.719
522.111
520.482
518.827
517.144
515.427
513.67
511.868
510.013
508.093
506.09
503.99
501.731
499.353
498.164
497.495
495.969
493.184
488.675
489.943
494.395
876.426
1104.35
1331.03
1222.28
1126.27
1100.11
1094.29
1092.46
1090.27
1087.37
1084.2
1080.93
1077.58
1074.11
1070.5
1066.73
1062.8
1058.69
1054.37
1049.83
1045.03
1039.98
1034.63
1028.97
1022.97
1016.59
1009.82
1002.63
994.986
986.853
978.209
969.02
959.272
948.944
938.028
926.508
914.379
901.638
888.306
874.407
859.963
845.003
829.588
813.762
797.589
781.142
764.493
747.724
730.916
714.166
697.562
681.2
665.184
649.621
634.625
620.322
606.855
594.386
583.108
573.233
564.773
558.195
553.407
549.829
547.001
544.632
542.548
540.648
538.866
537.163
535.513
533.898
532.305
530.725
529.15
527.576
525.996
524.409
522.808
521.192
519.554
517.891
516.199
514.473
512.707
510.898
509.036
507.109
505.103
502.975
500.876
497.842
498.596
498.202
496.57
493.73
489.042
489.612
494.189
877.457
1144.85
1422.79
1216.92
1122.99
1098.63
1093.49
1091.75
1089.5
1086.58
1083.41
1080.17
1076.85
1073.4
1069.83
1066.11
1062.22
1058.16
1053.91
1049.44
1044.73
1039.77
1034.54
1029
1023.13
1016.91
1010.31
1003.3
995.85
987.93
979.515
970.576
961.081
951.018
940.369
929.126
917.272
904.807
891.732
878.073
863.857
849.102
833.856
818.174
802.107
785.731
769.108
752.324
735.467
718.62
701.881
685.346
669.118
653.303
638.017
623.383
609.542
596.654
584.903
574.515
565.575
558.299
553.055
549.239
546.296
543.872
541.762
539.846
538.054
536.344
534.686
533.063
531.463
529.875
528.293
526.71
525.123
523.527
521.919
520.294
518.647
516.975
515.275
513.54
511.767
509.95
508.082
506.149
504.138
502.063
499.317
498.794
499.339
499.033
497.325
494.427
489.563
489.367
493.988
879.205
1105.72
1436.04
1210.57
1118.92
1097.19
1092.78
1091.1
1088.78
1085.83
1082.7
1079.49