/*--------------------------------*- C++ -*----------------------------------*\
  =========                 |
  \\      /  F ield         | OpenFOAM: The Open Source CFD Toolbox
   \\    /   O peration     | Website:  https://openfoam.org
    \\  /    A nd           | Version:  9
     \\/     M anipulation  |
\*---------------------------------------------------------------------------*/
FoamFile
{
    format      ascii;
    class       volVectorField;
    location    "750";
    object      U;
}
// * * * * * * * * * * * * * * * * * * * * * * * * * * * * * * * * * * * * * //

dimensions      [0 1 -1 0 0 0 0];

internalField   nonuniform List<vector> 
13446
(
(1.15162 -1.60423e-05 -2.03724e-19)
(1.15162 -1.58066e-05 1.29155e-19)
(1.15165 -4.65464e-05 8.10306e-20)
(1.15162 -1.55462e-05 -8.01644e-20)
(1.15164 -4.5956e-05 -2.32507e-19)
(1.15167 -7.73517e-05 5.7568e-20)
(1.15169 -0.000109615 6.18779e-20)
(1.1517 -0.000142604 -8.10774e-20)
(1.15161 -1.52612e-05 8.05879e-20)
(1.15164 -4.52811e-05 2.51372e-19)
(1.15166 -7.62182e-05 0)
(1.15168 -0.000108012 8.01703e-22)
(1.15169 -0.000140538 6.71096e-20)
(1.15171 -0.000174214 8.80412e-20)
(1.15161 -1.49559e-05 -5.52544e-20)
(1.15164 -4.45254e-05 -9.91621e-20)
(1.15166 -7.49522e-05 -4.63478e-25)
(1.15167 -0.000106223 -6.3843e-20)
(1.15169 -0.000138231 -6.77902e-20)
(1.1517 -0.000171368 9.10583e-20)
(1.1517 -0.000206038 0)
(1.15161 -1.46282e-05 0)
(1.15163 -4.36925e-05 -1.31984e-19)
(1.15165 -7.3559e-05 1.54768e-20)
(1.15167 -0.000104253 0)
(1.15168 -0.000135691 0)
(1.15169 -0.000168234 -1.48452e-19)
(1.15169 -0.000202271 -1.97937e-20)
(1.1517 -0.000238127 2.09876e-20)
(1.1517 -0.000276125 1.12498e-20)
(1.1517 -0.000316601 -1.19261e-20)
(1.15169 -0.000359891 3.78533e-20)
(1.15169 -0.000406336 6.77906e-20)
(1.15168 -0.000456288 -4.43447e-20)
(1.15167 -0.000510108 3.98494e-20)
(1.15166 -0.000568176 4.23779e-20)
(1.15165 -0.000630896 9.11589e-21)
(1.15163 -0.000698692 -7.77045e-20)
(1.15161 -0.000772019 7.35026e-20)
(1.15159 -0.000851366 1.14404e-20)
(1.15157 -0.000937256 -4.17727e-20)
(1.15154 -0.00103025 -2.03417e-20)
(1.15151 -0.00113097 0)
(1.15148 -0.00124005 0)
(1.15144 -0.00135822 4.20996e-20)
(1.1514 -0.00148624 -5.50829e-20)
(1.15135 -0.00162493 1.51804e-20)
(1.1513 -0.00177518 -6.37151e-21)
(1.15124 -0.00193795 0)
(1.15118 -0.00211427 0)
(1.15111 -0.00230525 -2.27904e-20)
(1.15103 -0.00251209 2.55935e-20)
(1.15161 -1.4281e-05 0)
(1.15163 -4.27845e-05 2.23978e-19)
(1.15165 -7.2042e-05 -1.01754e-23)
(1.15166 -0.000102111 8.44897e-20)
(1.15167 -0.000132928 1.79099e-20)
(1.15168 -0.000164825 5.66063e-20)
(1.15168 -0.00019818 -8.15175e-20)
(1.15168 -0.000233308 -1.08262e-20)
(1.15168 -0.00027052 -3.48941e-20)
(1.15168 -0.000310147 0)
(1.15168 -0.00035252 1.321e-20)
(1.15167 -0.000397973 -2.81525e-20)
(1.15166 -0.000446852 1.35604e-19)
(1.15165 -0.000499516 -6.4099e-20)
(1.15164 -0.000556338 -3.4418e-20)
(1.15162 -0.000617712 9.43292e-21)
(1.1516 -0.00068406 -2.10748e-20)
(1.15158 -0.000755824 -3.22009e-20)
(1.15156 -0.000833483 1.18882e-20)
(1.15153 -0.000917551 -6.35175e-20)
(1.1515 -0.00100858 3.42198e-20)
(1.15147 -0.00110715 1.92951e-22)
(1.15143 -0.00121392 3.33992e-20)
(1.15139 -0.00132956 -8.79009e-21)
(1.15134 -0.00145482 0)
(1.15129 -0.00159051 -2.1716e-20)
(1.15123 -0.00173748 2.29825e-20)
(1.15117 -0.00189665 3.285e-20)
(1.1511 -0.00206903 -6.97501e-21)
(1.15102 -0.00225569 3.07569e-20)
(1.15093 -0.00245777 -3.40559e-20)
(1.15084 -0.00267651 -4.36236e-20)
(1.15074 -0.00291323 2.07599e-20)
(1.11073 -0.0653191 -8.13977e-21)
(1.1079 -0.0702843 0)
(1.10497 -0.0756854 0)
(1.10194 -0.0815731 -4.88293e-20)
(1.09883 -0.0880109 0)
(1.09566 -0.095065 -6.11746e-20)
(1.09248 -0.102821 3.22776e-20)
(1.08934 -0.111366 0)
(1.08629 -0.120798 -1.02629e-20)
(1.08345 -0.131254 2.20825e-20)
(1.08093 -0.142846 -6.15323e-20)
(1.07892 -0.155737 -5.33652e-20)
(1.07767 -0.170025 0)
(1.07746 -0.185958 6.74048e-21)
(1.07885 -0.203379 1.57957e-20)
(1.08208 -0.222844 9.91797e-21)
(1.08851 -0.243103 2.22287e-20)
(1.09747 -0.266131 -3.32848e-20)
(1.11287 -0.286597 -2.1345e-23)
(1.12916 -0.312492 5.0632e-21)
(1.1595 -0.325208 -2.2429e-21)
(1.17877 -0.353635 2.29738e-21)
(1.23489 -0.342948 0)
(1.22937 -0.376098 -5.19729e-20)
(1.35728 -0.329354 -4.07744e-21)
(1.06952 -0.327058 1.00808e-19)
(1.15161 -1.39149e-05 -2.95994e-20)
(1.15163 -4.18088e-05 -9.10851e-20)
(1.15164 -7.0409e-05 0)
(1.15165 -9.98025e-05 -6.85694e-20)
(1.15166 -0.000129947 -1.83651e-20)
(1.15167 -0.000161152 9.79588e-20)
(1.15167 -0.000193776 8.25956e-20)
(1.15167 -0.000228125 1.11197e-20)
(1.15167 -0.000264504 8.28216e-20)
(1.15167 -0.000303233 -1.27016e-20)
(1.15166 -0.000344637 1.34651e-20)
(1.15165 -0.000389045 0)
(1.15164 -0.000436796 -1.39981e-19)
(1.15163 -0.000488241 8.17913e-21)
(1.15161 -0.00054375 4.51722e-20)
(1.15159 -0.000603709 3.90763e-20)
(1.15157 -0.000668529 5.18351e-20)
(1.15155 -0.000738645 -1.11747e-20)
(1.15152 -0.000814526 3.70486e-20)
(1.15149 -0.000896669 3.92272e-20)
(1.15146 -0.000985613 0)
(1.15142 -0.00108193 0)
(1.15138 -0.00118625 -5.95534e-20)
(1.15133 -0.00129922 -4.7023e-20)
(1.15128 -0.00142159 1.0386e-20)
(1.15122 -0.00155411 5.287e-21)
(1.15116 -0.00169761 6.04698e-21)
(1.15109 -0.00185301 -1.96909e-20)
(1.15102 -0.00202126 2.31631e-20)
(1.15093 -0.00220338 4.22798e-20)
(1.15084 -0.0024005 -8.99995e-21)
(1.15074 -0.0026138 -8.46821e-22)
(1.15063 -0.00284454 0)
(1.1505 -0.00309408 -1.10586e-21)
(1.11169 -0.0591088 0)
(1.10884 -0.0635854 9.13013e-21)
(1.10586 -0.0684495 -9.71332e-21)
(1.10274 -0.0737467 -3.437e-20)
(1.09951 -0.0795306 3.71742e-20)
(1.09617 -0.0858645 -7.29019e-21)
(1.09275 -0.0928165 6.97856e-20)
(1.08928 -0.100469 -4.53828e-20)
(1.08579 -0.108919 -3.07618e-20)
(1.08235 -0.118273 4.47546e-20)
(1.07905 -0.12867 3.7164e-20)
(1.07601 -0.140241 6.32466e-20)
(1.07339 -0.153157 -4.17378e-21)
(1.07143 -0.167555 -2.37396e-20)
(1.07041 -0.183698 -4.05502e-20)
(1.07088 -0.201509 -3.75187e-20)
(1.07311 -0.22155 4.09499e-20)
(1.07848 -0.242743 -2.27025e-20)
(1.08641 -0.26697 1.63887e-20)
(1.10096 -0.289239 -7.89502e-22)
(1.11666 -0.317158 3.22269e-21)
(1.14724 -0.332507 -1.14704e-21)
(1.16706 -0.363712 0)
(1.22569 -0.354936 5.29247e-21)
(1.22195 -0.391473 4.73891e-20)
(1.35472 -0.342199 4.18516e-21)
(1.07152 -0.344369 -9.5584e-20)
(1.15161 -1.35312e-05 0)
(1.15163 -4.07648e-05 -1.41723e-19)
(1.15164 -6.8662e-05 8.35194e-20)
(1.15165 -9.73341e-05 0)
(1.15166 -0.000126757 0)
(1.15166 -0.000157221 -9.96901e-20)
(1.15166 -0.000189066 -1.23773e-22)
(1.15166 -0.000222589 2.26963e-20)
(1.15166 -0.000258088 6.40334e-22)
(1.15165 -0.000295872 0)
(1.15164 -0.000336257 0)
(1.15163 -0.000379567 -1.50299e-20)
(1.15162 -0.000426134 7.95259e-20)
(1.15161 -0.000476303 8.68811e-21)
(1.15159 -0.000530434 -4.59851e-20)
(1.15157 -0.000588909 -3.96367e-20)
(1.15155 -0.000652127 1.09236e-20)
(1.15152 -0.000720515 -1.15803e-20)
(1.15149 -0.000794527 1.14535e-21)
(1.15146 -0.00087465 0)
(1.15142 -0.000961407 -3.02959e-20)
(1.15138 -0.00105535 0)
(1.15133 -0.0011571 3.51049e-20)
(1.15128 -0.00126728 2.84693e-20)
(1.15122 -0.0013866 -3.28311e-20)
(1.15116 -0.0015158 -5.9812e-21)
(1.15109 -0.00165569 6.34135e-21)
(1.15102 -0.00180713 0)
(1.15094 -0.00197106 -6.30004e-20)
(1.15085 -0.00214846 -3.42752e-20)
(1.15075 -0.00234041 0)
(1.15064 -0.00254804 4.87181e-20)
(1.15052 -0.00277257 -5.87948e-21)
(1.15039 -0.00301532 1.9455e-20)
(1.15024 -0.00327768 -3.12251e-20)
(1.15008 -0.00356112 -2.63468e-20)
(1.11283 -0.053401 -8.73262e-20)
(1.10999 -0.0574318 -1.60203e-20)
(1.10701 -0.0618059 -9.63603e-21)
(1.10387 -0.0665649 -3.27305e-20)
(1.10058 -0.0717533 4.66408e-20)
(1.09716 -0.0774234 -4.08783e-20)
(1.09359 -0.08364 -1.46746e-20)
(1.08992 -0.0904736 -8.66367e-21)
(1.08615 -0.0980106 4.60821e-20)
(1.08232 -0.106349 4.10104e-20)
(1.07849 -0.115603 -3.35324e-20)
(1.07474 -0.125913 -1.15606e-19)
(1.07117 -0.137426 0)
(1.06792 -0.150329 6.69019e-20)
(1.06524 -0.164791 2.3448e-20)
(1.06338 -0.181085 3.31941e-20)
(1.06288 -0.199217 0)
(1.06403 -0.219766 -2.9231e-20)
(1.06821 -0.241825 -4.45121e-21)
(1.07494 -0.2672 -1.58611e-20)
(1.0884 -0.291268 1.63997e-21)
(1.10325 -0.321306 -2.77391e-21)
(1.13379 -0.339496 -2.64625e-22)
(1.15393 -0.373808 0)
(1.21509 -0.367377 0)
(1.21305 -0.407865 0)
(1.35129 -0.35588 0)
(1.07201 -0.362884 0)
(1.15161 -1.31289e-05 0)
(1.15162 -3.96556e-05 1.1194e-19)
(1.15164 -6.68081e-05 1.77488e-20)
(1.15164 -9.47144e-05 9.11294e-20)
(1.15165 -0.000123368 7.53315e-23)
(1.15165 -0.000153046 1.04274e-22)
(1.15165 -0.000184065 -2.18664e-20)
(1.15165 -0.000216716 -1.17536e-20)
(1.15165 -0.000251285 1.30919e-20)
(1.15164 -0.000288075 0)
(1.15163 -0.000327393 0)
(1.15162 -0.000369555 0)
(1.1516 -0.000414884 -1.6671e-20)
(1.15159 -0.000463718 8.69558e-21)
(1.15157 -0.000516413 1.92004e-20)
(1.15154 -0.000573336 -1.02655e-20)
(1.15152 -0.00063488 5.65312e-20)
(1.15149 -0.000701461 -6.09925e-20)
(1.15146 -0.00077352 -5.20517e-20)
(1.15142 -0.000851532 0)
(1.15138 -0.000936003 3.07683e-20)
(1.15133 -0.00102747 0)
(1.15128 -0.00112653 0)
(1.15123 -0.00123379 4.12323e-20)
(1.15117 -0.00134993 4.40143e-20)
(1.1511 -0.00147567 -6.26696e-21)
(1.15103 -0.00161178 3.4127e-20)
(1.15095 -0.00175911 0)
(1.15086 -0.00191854 3.2555e-20)
(1.15077 -0.00209103 0)
(1.15066 -0.00227761 0)
(1.15054 -0.00247937 -2.23441e-20)
(1.15041 -0.00269749 0)
(1.15027 -0.00293322 3.62879e-20)
(1.15012 -0.0031879 -8.97861e-21)
(1.14995 -0.00346295 4.43835e-20)
(1.14977 -0.00375988 -1.13817e-20)
(1.12778 -0.031366 3.77065e-20)
(1.12584 -0.0336783 1.37386e-20)
(1.12378 -0.0361628 3.28675e-20)
(1.12158 -0.0388348 2.78714e-20)
(1.11923 -0.0417121 -7.03834e-22)
(1.11675 -0.0448145 1.15302e-20)
(1.11411 -0.0481645 4.09458e-20)
(1.11131 -0.0517901 1.37449e-19)
(1.10835 -0.0557192 0)
(1.10523 -0.0599871 4.00078e-20)
(1.10194 -0.064633 8.89263e-20)
(1.09849 -0.0697047 0)
(1.09487 -0.075253 5.55382e-20)
(1.09109 -0.0813437 0)
(1.08716 -0.0880498 2.73304e-20)
(1.0831 -0.0954554 -4.14743e-20)
(1.07894 -0.103667 6.82488e-20)
(1.07473 -0.112797 2.6137e-20)
(1.07052 -0.122996 1.06497e-20)
(1.06641 -0.134414 -7.72019e-21)
(1.06254 -0.147261 8.20507e-21)
(1.05912 -0.16173 -3.72191e-20)
(1.0564 -0.178122 9.5189e-21)
(1.05489 -0.196505 -1.00946e-20)
(1.05487 -0.217476 0)
(1.05775 -0.240313 -4.23009e-20)
(1.0631 -0.266781 3.54404e-20)
(1.07524 -0.292622 0)
(1.08893 -0.324832 -7.05284e-22)
(1.11914 -0.346043 -3.47472e-22)
(1.13921 -0.38381 2.77363e-21)
(1.2029 -0.380188 -2.82857e-21)
(1.20252 -0.425374 0)
(1.34729 -0.370662 6.28388e-20)
(1.0715 -0.383429 -5.17189e-21)
(1.15161 -1.27114e-05 1.28482e-19)
(1.15162 -3.84859e-05 1.65194e-20)
(1.15163 -6.48487e-05 -8.73015e-20)
(1.15164 -9.19456e-05 -7.41862e-20)
(1.15164 -0.000119788 1.98902e-20)
(1.15164 -0.000148629 1.16239e-22)
(1.15164 -0.000178779 -1.13171e-19)
(1.15164 -0.000210513 1.20974e-20)
(1.15163 -0.000244107 -1.22031e-20)
(1.15162 -0.000279857 0)
(1.15161 -0.00031806 0)
(1.1516 -0.000359022 -1.59991e-20)
(1.15158 -0.000403062 1.69604e-20)
(1.15157 -0.000450507 -3.70682e-20)
(1.15154 -0.000501704 -4.00036e-20)
(1.15152 -0.000557012 0)
(1.15149 -0.000616814 -4.59719e-20)
(1.15146 -0.000681513 4.98156e-20)
(1.15142 -0.000751541 0)
(1.15138 -0.000827354 0)
(1.15134 -0.000909443 -4.09951e-20)
(1.15129 -0.000998332 1.77225e-20)
(1.15124 -0.00109459 -4.87466e-20)
(1.15118 -0.00119881 -8.49458e-20)
(1.15112 -0.00131164 2.36487e-20)
(1.15105 -0.00143379 0)
(1.15097 -0.00156599 -5.67126e-20)
(1.15088 -0.00170905 0)
(1.15079 -0.00186382 0)
(1.15069 -0.00203122 3.92053e-20)
(1.15057 -0.00221224 0)
(1.15045 -0.00240794 3.05093e-20)
(1.15031 -0.00261944 -6.52924e-21)
(1.15017 -0.00284793 -2.94541e-20)
(1.15 -0.00309471 -1.18841e-21)
(1.14983 -0.00336114 -9.76197e-21)
(1.14963 -0.00364866 7.38491e-20)
(1.14942 -0.00395883 -1.82514e-20)
(1.14918 -0.00429328 2.00635e-20)
(1.12875 -0.0282383 -5.70678e-20)
(1.12688 -0.0303241 -3.88522e-20)
(1.12488 -0.0325641 1.54621e-20)
(1.12275 -0.0349713 -1.5398e-20)
(1.12048 -0.0375623 -3.80489e-20)
(1.11805 -0.0403538 -5.60141e-20)
(1.11548 -0.0433663 -8.3107e-22)
(1.11274 -0.0466226 -4.21089e-20)
(1.10984 -0.0501478 -6.339e-20)
(1.10677 -0.0539706 -9.43978e-21)
(1.10351 -0.0581268 -1.99616e-20)
(1.10008 -0.0626554 -5.74024e-20)
(1.09646 -0.0676048 6.74764e-20)
(1.09265 -0.0730268 -1.45282e-20)
(1.08866 -0.0789829 -8.6697e-21)
(1.08448 -0.0855452 -1.8182e-20)
(1.08014 -0.0928073 7.46841e-20)
(1.07566 -0.100871 -9.52512e-20)
(1.07106 -0.109861 -3.83531e-20)
(1.0664 -0.119917 4.31992e-20)
(1.06176 -0.131217 0)
(1.05727 -0.143972 -3.69671e-20)
(1.0531 -0.158392 7.32987e-21)
(1.04949 -0.174808 3.31683e-20)
(1.04692 -0.193359 -4.64192e-20)
(1.04568 -0.214669 -5.57072e-21)
(1.04714 -0.238192 4.89608e-20)
(1.05095 -0.265669 -1.96614e-20)
(1.06152 -0.293221 0)
(1.07375 -0.327628 -1.36353e-20)
(1.10324 -0.352012 6.90354e-21)
(1.12276 -0.393559 0)
(1.18892 -0.393259 2.27851e-20)
(1.18981 -0.444062 0)
(1.34194 -0.386574 -3.03413e-20)
(1.07128 -0.407109 0)
(1.15161 -1.22789e-05 -2.79361e-19)
(1.15162 -3.72585e-05 -1.69783e-20)
(1.15163 -6.27915e-05 0)
(1.15163 -8.90368e-05 0)
(1.15164 -0.000116021 0)
(1.15164 -0.000143985 2.18225e-20)
(1.15163 -0.000173219 6.92041e-20)
(1.15163 -0.00020399 -1.24609e-20)
(1.15162 -0.000236565 2.71648e-20)
(1.15161 -0.000271228 -2.84521e-20)
(1.1516 -0.000308268 1.51667e-20)
(1.15158 -0.000347985 1.6522e-20)
(1.15157 -0.000390684 -5.30427e-20)
(1.15155 -0.000436687 8.56505e-20)
(1.15152 -0.00048633 -1.08197e-20)
(1.1515 -0.000539961 4.47629e-20)
(1.15147 -0.000597955 0)
(1.15143 -0.000660702 5.26687e-20)
(1.15139 -0.000728619 0)
(1.15135 -0.000802149 0)
(1.1513 -0.000881768 3.3362e-20)
(1.15125 -0.000967981 9.37854e-21)
(1.1512 -0.00106133 2.99781e-20)
(1.15113 -0.0011624 8.86761e-20)
(1.15107 -0.00127181 -2.40792e-20)
(1.15099 -0.00139023 0)
(1.15091 -0.00151838 2.92888e-20)
(1.15082 -0.00165701 -8.4154e-21)
(1.15072 -0.00180697 -2.80563e-20)
(1.15061 -0.00196913 1.20166e-21)
(1.15049 -0.00214443 2.2909e-20)
(1.15036 -0.00233388 -3.12728e-20)
(1.15022 -0.00253855 6.86829e-21)
(1.15006 -0.00275962 8.13451e-21)
(1.14989 -0.00299828 1.70861e-20)
(1.1497 -0.00325586 -3.08256e-20)
(1.1495 -0.00353375 6.55813e-21)
(1.14928 -0.00383342 1.22026e-20)
(1.14903 -0.00415645 -4.64426e-22)
(1.14877 -0.0045045 3.13365e-20)
(1.14847 -0.00487934 -2.72228e-20)
(1.13706 -0.0177141 1.12854e-20)
(1.1358 -0.0190423 -6.08484e-20)
(1.13444 -0.0204648 -5.75046e-20)
(1.13298 -0.0219884 -3.28359e-20)
(1.13141 -0.0236211 -3.64173e-20)
(1.12973 -0.0253717 0)
(1.12794 -0.02725 0)
(1.12601 -0.029266 0)
(1.12395 -0.0314321 0)
(1.12176 -0.0337624 -3.5094e-20)
(1.11941 -0.0362711 -3.06001e-20)
(1.11692 -0.0389752 8.10465e-20)
(1.11426 -0.0418957 -5.31738e-20)
(1.11143 -0.0450535 1.54161e-20)
(1.10842 -0.0484751 -1.63949e-20)
(1.10523 -0.0521896 3.89315e-20)
(1.10185 -0.0562321 1.12366e-20)
(1.09828 -0.0606389 5.07711e-20)
(1.09449 -0.065457 -6.83416e-20)
(1.0905 -0.0707412 -6.39969e-20)
(1.0863 -0.0765548 6.31126e-20)
(1.08188 -0.0829694 -5.63117e-22)
(1.07727 -0.0900781 -3.32092e-20)
(1.07246 -0.0979789 4.95347e-20)
(1.06748 -0.106798 -5.776e-20)
(1.06238 -0.116691 6.45276e-20)
(1.05722 -0.12784 -7.1794e-20)
(1.05209 -0.140459 2.78177e-20)
(1.04718 -0.154786 4.08647e-20)
(1.04267 -0.171163 -2.15082e-20)
(1.03901 -0.189811 2.28232e-20)
(1.03649 -0.211366 1.29397e-20)
(1.03643 -0.23545 6.2351e-21)
(1.03854 -0.26382 -6.57609e-21)
(1.0473 -0.293 -2.94483e-20)
(1.05767 -0.329558 1.88955e-20)
(1.08603 -0.357237 -5.94905e-21)
(1.10454 -0.402891 -1.81704e-21)
(1.1729 -0.406479 -7.69643e-21)
(1.17466 -0.463845 -4.52685e-21)
(1.3353 -0.403828 -3.01407e-20)
(1.07023 -0.434765 0)
(1.15161 -1.18305e-05 1.34676e-19)
(1.15162 -3.59738e-05 0)
(1.15162 -6.06388e-05 1.85682e-20)
(1.15163 -8.59923e-05 -3.94606e-20)
(1.15163 -0.000112075 2.09609e-20)
(1.15163 -0.000139118 0)
(1.15163 -0.000167393 0)
(1.15162 -0.000197158 5.1386e-20)
(1.15161 -0.000228672 -5.44217e-20)
(1.1516 -0.000262204 -7.377e-20)
(1.15159 -0.000298036 1.56527e-20)
(1.15157 -0.000336458 1.70735e-20)
(1.15155 -0.000377767 -1.85894e-20)
(1.15153 -0.000422275 -3.90588e-20)
(1.1515 -0.000470308 4.21865e-20)
(1.15147 -0.000522205 -4.56404e-20)
(1.15144 -0.000578328 -3.76568e-20)
(1.1514 -0.000639053 -8.08194e-20)
(1.15136 -0.000704786 1.45563e-20)
(1.15132 -0.000775956 -2.42769e-20)
(1.15127 -0.000853021 -1.75745e-20)
(1.15122 -0.000936465 -3.15972e-22)
(1.15116 -0.00102681 1.03639e-20)
(1.15109 -0.00112462 1.05346e-21)
(1.15102 -0.00123049 0)
(1.15094 -0.00134507 0)
(1.15085 -0.00146902 2.35183e-20)
(1.15075 -0.00160311 1.72509e-20)
(1.15065 -0.00174811 1.8551e-20)
(1.15054 -0.00190486 -7.46386e-20)
(1.15041 -0.00207427 -2.94475e-20)
(1.15027 -0.00225729 3.33044e-20)
(1.15012 -0.00245498 -2.24256e-20)
(1.14996 -0.00266841 4.72296e-22)
(1.14978 -0.00289877 2.8786e-20)
(1.14959 -0.00314731 7.30887e-20)
(1.14937 -0.00341534 -3.58038e-20)
(1.14914 -0.0037043 6.90605e-21)
(1.14889 -0.00401567 -1.51375e-20)
(1.14861 -0.00435105 8.28627e-21)
(1.1483 -0.00471215 3.93625e-20)
(1.14797 -0.00510076 4.46823e-20)
(1.14761 -0.00551876 2.4593e-20)
(1.14722 -0.00596821 2.88794e-20)
(1.14679 -0.00645126 -2.34508e-20)
(1.13653 -0.0170594 -8.39583e-22)
(1.13523 -0.018338 1.25731e-20)
(1.13383 -0.0197078 2.85037e-20)
(1.13234 -0.0211755 3.34813e-20)
(1.13073 -0.022749 1.00634e-20)
(1.129 -0.0244367 3.41158e-20)
(1.12715 -0.0262479 0)
(1.12518 -0.0281934 0)
(1.12306 -0.0302848 0)
(1.1208 -0.0325353 0)
(1.11839 -0.0349602 -1.13496e-21)
(1.11582 -0.0375759 -6.02067e-20)
(1.11308 -0.0404021 1.23238e-19)
(1.11016 -0.0434611 0)
(1.10705 -0.046777 0)
(1.10375 -0.0503789 -2.92799e-20)
(1.10025 -0.054302 -2.2884e-20)
(1.09653 -0.0585831 -2.5057e-20)
(1.09259 -0.0632678 -2.93597e-20)
(1.08842 -0.0684107 8.13506e-20)
(1.08401 -0.074071 -8.33431e-20)
(1.07937 -0.0803254 5.32409e-20)
(1.07448 -0.087264 -4.84464e-20)
(1.06935 -0.0949884 -6.8305e-20)
(1.06401 -0.103627 7.3543e-20)
(1.05847 -0.113333 -8.30192e-20)
(1.05279 -0.124293 1.01102e-19)
(1.04704 -0.136734 -2.07738e-20)
(1.04137 -0.150918 -3.68553e-22)
(1.03595 -0.167198 6.39018e-20)
(1.03119 -0.18585 -6.93806e-20)
(1.02733 -0.207545 1.43039e-20)
(1.02567 -0.23207 7.14583e-21)
(1.02592 -0.261209 -3.16478e-20)
(1.0326 -0.291857 1.80112e-20)
(1.04077 -0.330528 -2.41961e-20)
(1.06753 -0.36155 -6.68557e-22)
(1.08435 -0.411607 6.8666e-22)
(1.15461 -0.41966 -1.37113e-20)
(1.15667 -0.48469 2.77507e-20)
(1.32657 -0.422715 0)
(1.06654 -0.46662 6.8486e-21)
(1.15161 -1.13684e-05 0)
(1.15161 -3.46356e-05 0)
(1.15162 -5.83941e-05 0)
(1.15162 -8.28171e-05 1.01971e-19)
(1.15162 -0.000107958 -2.15949e-20)
(1.15162 -0.000134037 -9.27503e-20)
(1.15162 -0.000161312 1.23836e-20)
(1.15161 -0.00019003 -7.88506e-20)
(1.1516 -0.000220436 1.40516e-20)
(1.15159 -0.000252792 6.02457e-20)
(1.15157 -0.000287373 0)
(1.15155 -0.000324455 -5.27838e-20)
(1.15153 -0.000364327 2.82899e-20)
(1.15151 -0.00040729 -2.03818e-20)
(1.15148 -0.00045366 -3.3437e-20)
(1.15145 -0.000503766 -4.80461e-20)
(1.15142 -0.000557956 6.44529e-20)
(1.15138 -0.000616597 3.66921e-22)
(1.15133 -0.000680078 -2.2898e-20)
(1.15129 -0.000748811 1.61314e-20)
(1.15124 -0.000823237 3.71739e-20)
(1.15118 -0.000903826 -5.02701e-20)
(1.15111 -0.000991078 1.11968e-20)
(1.15105 -0.00108553 -2.90845e-20)
(1.15097 -0.00118776 -6.53439e-21)
(1.15089 -0.00129837 -7.51605e-21)
(1.15079 -0.00141802 -2.4164e-20)
(1.15069 -0.00154742 9.23998e-21)
(1.15058 -0.00168731 -9.79674e-21)
(1.15047 -0.00183851 6.65943e-20)
(1.15033 -0.00200188 -6.39279e-21)
(1.15019 -0.00217832 -2.0634e-20)
(1.15003 -0.00236884 3.06841e-20)
(1.14986 -0.00257447 0)
(1.14968 -0.00279634 -3.8659e-20)
(1.14947 -0.00303563 -5.49096e-20)
(1.14925 -0.0032936 1.1367e-20)
(1.14901 -0.00357163 0)
(1.14874 -0.00387113 -3.22402e-20)
(1.14846 -0.00419362 0)
(1.14814 -0.00454075 1.20588e-21)
(1.1478 -0.00491421 -4.56223e-20)
(1.14743 -0.00531583 0)
(1.14702 -0.00574754 -2.94874e-20)
(1.14658 -0.00621144 3.45697e-20)
(1.1461 -0.00670965 0)
(1.14557 -0.0072445 5.6399e-20)
(1.13602 -0.0163955 0)
(1.13469 -0.017624 1.41846e-20)
(1.13326 -0.0189404 -2.39549e-20)
(1.13172 -0.0203519 -2.7432e-20)
(1.13007 -0.0218655 0)
(1.1283 -0.0234895 -3.372e-20)
(1.1264 -0.0252336 -5.25626e-20)
(1.12437 -0.0271076 -7.55604e-20)
(1.1222 -0.0291229 -4.36537e-20)
(1.11988 -0.0312932 1.95996e-20)
(1.11741 -0.033633 4.47163e-20)
(1.11476 -0.0361587 -2.53904e-20)
(1.11194 -0.0388892 -4.29239e-20)
(1.10894 -0.0418451 0)
(1.10573 -0.0450532 3.76844e-20)
(1.10232 -0.0485399 5.37285e-20)
(1.0987 -0.0523398 -6.0205e-20)
(1.09484 -0.0564907 -6.9154e-20)
(1.09075 -0.0610378 1.49515e-20)
(1.08641 -0.0660303 -7.07553e-20)
(1.0818 -0.0715323 -5.02163e-20)
(1.07692 -0.0776208 1.22348e-20)
(1.07177 -0.0843784 3.6501e-20)
(1.06634 -0.0919122 6.94648e-20)
(1.06064 -0.100347 -6.48854e-20)
(1.05467 -0.109844 -7.28755e-20)
(1.04848 -0.120591 3.05661e-20)
(1.04212 -0.132826 1.08868e-20)
(1.0357 -0.146806 1.25546e-20)
(1.02937 -0.162922 -7.97104e-20)
(1.02348 -0.181493 -4.08234e-21)
(1.01826 -0.20322 8.12931e-20)
(1.0149 -0.228055 0)
(1.01315 -0.257791 6.70607e-20)
(1.0175 -0.289761 -7.29895e-21)
(1.0231 -0.330426 3.24536e-20)
(1.04772 -0.364772 0)
(1.06211 -0.419477 4.59731e-22)
(1.13385 -0.432532 -4.73017e-22)
(1.13506 -0.506394 -8.80853e-21)
(1.31485 -0.443151 6.5399e-21)
(1.06103 -0.503116 5.82821e-20)
(1.1516 -1.08932e-05 7.2018e-20)
(1.15161 -3.32477e-05 -7.43807e-20)
(1.15162 -5.6062e-05 -1.96691e-20)
(1.15162 -7.95157e-05 -8.34495e-20)
(1.15162 -0.000103677 0)
(1.15162 -0.00012875 9.48434e-20)
(1.15161 -0.000154983 1.27844e-20)
(1.1516 -0.000182611 4.11527e-20)
(1.15159 -0.00021187 -1.46804e-20)
(1.15158 -0.000243012 -2.04513e-22)
(1.15156 -0.000276296 -5.0947e-20)
(1.15154 -0.000311991 7.20277e-20)
(1.15152 -0.000350379 9.86186e-21)
(1.15149 -0.000391748 -5.29112e-20)
(1.15146 -0.000436404 5.6888e-20)
(1.15143 -0.000484665 3.68879e-20)
(1.15139 -0.000536865 0)
(1.15135 -0.000593359 -2.94498e-20)
(1.15131 -0.00065452 -8.08817e-21)
(1.15126 -0.000720745 7.98127e-21)
(1.1512 -0.000792459 -3.77143e-20)
(1.15114 -0.00087011 8.34314e-20)
(1.15108 -0.000954179 1.16849e-20)
(1.151 -0.00104518 -3.73501e-20)
(1.15092 -0.00114365 -7.10671e-21)
(1.15084 -0.00125019 3.85975e-20)
(1.15074 -0.00136542 0)
(1.15064 -0.00149001 -9.67874e-21)
(1.15052 -0.00162468 1.02618e-20)
(1.1504 -0.00177019 -2.30913e-20)
(1.15026 -0.00192737 0)
(1.15011 -0.00209708 7.5081e-21)
(1.14995 -0.00228027 -4.94742e-20)
(1.14977 -0.00247793 8.92656e-21)
(1.14958 -0.00269112 1.06387e-20)
(1.14937 -0.00292098 -2.2806e-20)
(1.14914 -0.00316872 4.63859e-20)
(1.14888 -0.00343562 -3.71283e-20)
(1.14861 -0.00372303 4.16194e-20)
(1.14831 -0.00403244 2.91947e-20)
(1.14799 -0.00436537 -5.34565e-20)
(1.14763 -0.00472346 1.17989e-20)
(1.14725 -0.00510844 0)
(1.14683 -0.00552218 0)
(1.14637 -0.00596667 -7.16702e-20)
(1.14587 -0.00644399 -4.13735e-20)
(1.14534 -0.00695636 -5.80011e-20)
(1.14475 -0.00750612 3.97173e-20)
(1.14412 -0.00809588 0)
(1.14343 -0.00872835 -8.98694e-21)
(1.14269 -0.00940634 -7.27836e-22)
(1.14189 -0.010133 5.53936e-20)
(1.14102 -0.0109116 5.21533e-20)
(1.14008 -0.011746 7.64912e-21)
(1.13907 -0.0126399 -1.68564e-20)
(1.13798 -0.0135975 4.7199e-20)
(1.1368 -0.0146234 -4.33282e-20)
(1.13553 -0.0157226 -5.07085e-20)
(1.13417 -0.0169006 0)
(1.1327 -0.0181634 6.53276e-20)
(1.13113 -0.0195176 8.42551e-20)
(1.12944 -0.0209705 2.1714e-20)
(1.12762 -0.0225304 1.17359e-20)
(1.12568 -0.0242062 5.47063e-20)
(1.1236 -0.0260076 6.23651e-20)
(1.12138 -0.0279461 3.55339e-20)
(1.119 -0.030035 0)
(1.11646 -0.0322878 0)
(1.11374 -0.0347211 1.37534e-20)
(1.11085 -0.0373535 -3.02627e-20)
(1.10776 -0.040207 8.61017e-20)
(1.10446 -0.0433042 -4.86313e-20)
(1.10095 -0.0466739 -3.30202e-20)
(1.0972 -0.0503485 4.96705e-20)
(1.09322 -0.0543639 -1.47591e-21)
(1.08897 -0.0587655 0)
(1.08446 -0.0636043 7.23388e-20)
(1.07966 -0.0689438 5.16579e-20)
(1.07456 -0.074853 2.0971e-21)
(1.06915 -0.0814203 -1.29022e-20)
(1.06342 -0.0887529 0)
(1.05736 -0.0969721 -1.97025e-20)
(1.05098 -0.106236 1.31639e-19)
(1.04429 -0.116743 -3.07903e-20)
(1.03732 -0.128726 4.91742e-20)
(1.03017 -0.142468 2.77154e-20)
(1.02293 -0.15836 1.43631e-20)
(1.01591 -0.176765 -2.00657e-20)
(1.00929 -0.198413 -1.39347e-20)
(1.00418 -0.223389 0)
(1.0003 -0.253561 -4.54668e-20)
(1.00209 -0.286635 1.01186e-21)
(1.00474 -0.329116 9.18777e-21)
(1.02665 -0.366711 -2.35307e-21)
(1.0378 -0.42625 2.86221e-21)
(1.11039 -0.444795 -4.49219e-22)
(1.1097 -0.528631 -2.80734e-21)
(1.30045 -0.465001 -1.06062e-20)
(1.04977 -0.542531 -4.78873e-20)
(1.1516 -1.04048e-05 -7.37992e-20)
(1.15161 -3.18095e-05 1.33807e-19)
(1.15161 -5.36447e-05 2.02992e-20)
(1.15162 -7.60941e-05 2.1685e-20)
(1.15161 -9.92369e-05 9.26987e-20)
(1.15161 -0.000123267 -2.4524e-20)
(1.1516 -0.000148417 -5.28063e-20)
(1.15159 -0.000174914 -5.60259e-20)
(1.15158 -0.000202984 0)
(1.15156 -0.000232867 0)
(1.15155 -0.00026481 6.9293e-20)
(1.15153 -0.000299078 9.4661e-21)
(1.1515 -0.000335938 -1.00347e-20)
(1.15147 -0.000375668 4.34792e-20)
(1.15144 -0.000418561 -1.19841e-20)
(1.15141 -0.000464924 1.27044e-20)
(1.15137 -0.000515079 1.41516e-20)
(1.15133 -0.000569366 1.51573e-20)
(1.15128 -0.000628144 -2.49737e-20)
(1.15123 -0.000691795 -9.50699e-21)
(1.15117 -0.000760723 1.00938e-20)
(1.15111 -0.000835358 -6.49038e-20)
(1.15104 -0.000916158 3.58774e-20)
(1.15096 -0.00100361 -6.72475e-21)
(1.15088 -0.00109824 7.12956e-21)
(1.15079 -0.00120061 -3.18109e-20)
(1.15069 -0.00131131 0)
(1.15058 -0.00143098 0)
(1.15046 -0.00156029 -1.12885e-20)
(1.15033 -0.00169998 -1.2813e-20)
(1.15019 -0.00185084 2.76792e-20)
(1.15003 -0.00201367 3.09691e-20)
(1.14987 -0.00218938 4.27303e-20)
(1.14968 -0.00237891 -9.37297e-21)
(1.14948 -0.00258326 -2.19162e-20)
(1.14926 -0.00280352 2.40797e-20)
(1.14902 -0.00304084 -3.42705e-20)
(1.14876 -0.00329643 3.82189e-20)
(1.14848 -0.00357158 0)
(1.14817 -0.00386769 -3.9296e-20)
(1.14784 -0.00418621 0)
(1.14747 -0.00452872 2.594e-20)
(1.14707 -0.00489688 -7.55153e-21)
(1.14664 -0.00529244 8.00936e-21)
(1.14617 -0.00571729 3.71979e-20)
(1.14566 -0.00617342 4.23711e-20)
(1.14511 -0.00666303 0)
(1.14451 -0.00718831 -2.75386e-20)
(1.14386 -0.0077517 -8.26799e-21)
(1.14316 -0.00835593 8.7719e-21)
(1.1424 -0.00900364 1.07747e-20)
(1.14157 -0.00969787 -1.14329e-20)
(1.14068 -0.010442 -5.3412e-20)
(1.13972 -0.0112393 -3.1229e-20)
(1.13868 -0.0120936 -3.56658e-20)
(1.13757 -0.013009 4.07332e-20)
(1.13636 -0.0139899 1.19546e-20)
(1.13506 -0.0150412 7.87086e-20)
(1.13367 -0.0161683 3.70228e-20)
(1.13217 -0.017377 -1.6685e-20)
(1.13056 -0.0186736 -4.80809e-20)
(1.12883 -0.0200656 -4.40874e-20)
(1.12698 -0.0215604 5.14071e-20)
(1.12499 -0.0231669 -7.36687e-20)
(1.12287 -0.0248952 -1.7422e-20)
(1.12059 -0.0267565 9.7699e-21)
(1.11815 -0.0287628 7.43704e-22)
(1.11555 -0.0309281 -1.18252e-20)
(1.11277 -0.0332685 5.62231e-20)
(1.10979 -0.0358023 0)
(1.10662 -0.0385494 -7.11448e-20)
(1.10323 -0.0415336 -4.13724e-20)
(1.09962 -0.0447823 0)
(1.09576 -0.0483267 5.34199e-20)
(1.09164 -0.0522056 5.92059e-20)
(1.08726 -0.05646 6.88585e-20)
(1.08258 -0.0611394 0)
(1.07759 -0.0663038 0)
(1.07228 -0.072027 -3.60235e-20)
(1.06662 -0.0783972 4.32064e-20)
(1.06059 -0.0855134 0)
(1.05419 -0.0935017 5.18851e-20)
(1.0474 -0.102518 -1.99759e-20)
(1.04022 -0.112754 0)
(1.03266 -0.124451 2.03502e-21)
(1.02478 -0.137902 -5.54989e-20)
(1.01664 -0.15351 1.61089e-20)
(1.00849 -0.171659 5.06325e-20)
(1.00047 -0.193117 -2.72202e-20)
(0.993554 -0.218097 -1.01637e-20)
(0.987461 -0.248505 0)
(0.986429 -0.282438 0)
(0.985781 -0.326485 -4.40679e-20)
(1.00432 -0.367135 2.34266e-20)
(1.01131 -0.431629 -1.99297e-21)
(1.08399 -0.456122 -1.55305e-21)
(1.07955 -0.551184 -2.65172e-20)
(1.28213 -0.487991 1.66172e-20)
(1.03347 -0.586006 -1.12464e-20)
(1.1516 -9.90383e-06 7.67702e-20)
(1.15161 -3.03242e-05 -5.89624e-20)
(1.15161 -5.11464e-05 -2.0975e-20)
(1.15161 -7.25567e-05 -2.24158e-20)
(1.15161 -9.4643e-05 -8.31408e-20)
(1.1516 -0.000117592 2.54534e-20)
(1.15159 -0.000141623 9.52338e-20)
(1.15158 -0.00016695 0)
(1.15157 -0.000193791 0)
(1.15155 -0.000222375 -8.42973e-20)
(1.15153 -0.000252941 1.79179e-20)
(1.15151 -0.000285738 0)
(1.15149 -0.000321023 -4.22082e-20)
(1.15146 -0.000359067 4.56565e-20)
(1.15143 -0.000400149 -3.70267e-20)
(1.15139 -0.000444563 -1.31971e-20)
(1.15135 -0.00049262 0)
(1.1513 -0.000544644 0)
(1.15126 -0.000600979 2.5484e-20)
(1.1512 -0.000661989 8.72473e-21)
(1.15114 -0.000728061 1.05274e-20)
(1.15107 -0.000799605 -2.27299e-20)
(1.151 -0.000877059 -3.76539e-20)
(1.15092 -0.000960887 2.77537e-20)
(1.15084 -0.00105159 3.0659e-20)
(1.15074 -0.00114968 2.53294e-20)
(1.15064 -0.00125575 -2.85111e-20)
(1.15053 -0.00137038 -4.18185e-20)
(1.1504 -0.00149423 -5.91611e-21)
(1.15027 -0.00162799 3.82975e-20)
(1.15012 -0.00177238 -7.17856e-20)
(1.14996 -0.0019282 -2.39371e-20)
(1.14979 -0.00209629 -4.56926e-20)
(1.1496 -0.00227754 4.03055e-20)
(1.14939 -0.00247291 3.35431e-20)
(1.14916 -0.00268341 5.18332e-20)
(1.14892 -0.00291013 0)
(1.14865 -0.00315423 -4.14884e-20)
(1.14836 -0.00341693 5.59001e-20)
(1.14804 -0.00369955 -1.0143e-20)
(1.14769 -0.00400349 0)
(1.14732 -0.00433021 7.61849e-21)
(1.14691 -0.00468132 3.14849e-20)
(1.14647 -0.00505847 -4.36162e-20)
(1.14598 -0.00546351 -5.03352e-20)
(1.14546 -0.00589827 1.09042e-20)
(1.14489 -0.00636484 -1.93127e-20)
(1.14428 -0.0068654 -3.67058e-20)
(1.14361 -0.0074023 0)
(1.14289 -0.00797803 0)
(1.14211 -0.00859523 5.53089e-20)
(1.14127 -0.00925679 -6.22271e-20)
(1.14036 -0.00996579 0)
(1.13938 -0.0107257 -7.04236e-22)
(1.13832 -0.0115401 8.35824e-20)
(1.13717 -0.012413 -5.19888e-20)
(1.13594 -0.0133487 -4.874e-20)
(1.13462 -0.0143518 -5.44875e-20)
(1.13319 -0.0154275 -3.1105e-20)
(1.13166 -0.0165815 -3.62506e-20)
(1.13002 -0.0178202 4.13666e-20)
(1.12825 -0.0191504 0)
(1.12636 -0.0205797 1.09231e-21)
(1.12433 -0.0221169 4.43634e-20)
(1.12216 -0.0237713 5.10254e-20)
(1.11983 -0.0255539 0)
(1.11734 -0.0274764 -4.54139e-20)
(1.11467 -0.0295529 5.17214e-20)
(1.11183 -0.0317988 1.21301e-21)
(1.10878 -0.0342303 5.06942e-20)
(1.10553 -0.0368692 -1.82739e-20)
(1.10205 -0.0397388 4.24363e-20)