# Force coefficients
# liftDir     : (0.000000e+00 1.000000e+00 0.000000e+00)
# dragDir     : (1.000000e+00 0.000000e+00 0.000000e+00)
# pitchAxis   : (0.000000e+00 0.000000e+00 1.000000e+00)
# magUInf     : 1.151600e+00
# lRef        : 1.000000e+00
# Aref        : 9.975641e-04
# CofR        : (0.000000e+00 0.000000e+00 0.000000e+00)
# Time        	Cm            	Cd            	Cl            	Cl(f)         	Cl(r)         
0             	-5.604114e-02	3.750823e+00	4.739895e-03	-5.367119e-02	5.841109e-02
5             	3.383101e+02	9.453238e+00	8.994337e+01	3.832818e+02	-2.933384e+02
10            	3.616264e+02	1.001398e+01	9.627407e+01	4.097634e+02	-3.134893e+02
15            	3.697975e+02	9.801870e+00	9.879276e+01	4.191939e+02	-3.204011e+02
