# Force coefficient bins
# bins        : 20
# start       : 3.000355e+00
# delta       : 4.982248e-02
# direction   : (1.000000e+00 0.000000e+00 0.000000e+00)
# x co-ords  :	3.050177e+00	3.100000e+00	3.149822e+00	3.199645e+00	3.249467e+00	3.299290e+00	3.349112e+00	3.398935e+00	3.448757e+00	3.498580e+00	3.548402e+00	3.598225e+00	3.648047e+00	3.697870e+00	3.747692e+00	3.797515e+00	3.847337e+00	3.897160e+00	3.946982e+00	3.996805e+00
# y co-ords  :	0.000000e+00	0.000000e+00	0.000000e+00	0.000000e+00	0.000000e+00	0.000000e+00	0.000000e+00	0.000000e+00	0.000000e+00	0.000000e+00	0.000000e+00	0.000000e+00	0.000000e+00	0.000000e+00	0.000000e+00	0.000000e+00	0.000000e+00	0.000000e+00	0.000000e+00	0.000000e+00
# z co-ords  :	0.000000e+00	0.000000e+00	0.000000e+00	0.000000e+00	0.000000e+00	0.000000e+00	0.000000e+00	0.000000e+00	0.000000e+00	0.000000e+00	0.000000e+00	0.000000e+00	0.000000e+00	0.000000e+00	0.000000e+00	0.000000e+00	0.000000e+00	0.000000e+00	0.000000e+00	0.000000e+00
# Time        	Cm(0)         	Cd(0)         	Cl(0)         	Cm(1)         	Cd(1)         	Cl(1)         	Cm(2)         	Cd(2)         	Cl(2)         	Cm(3)         	Cd(3)         	Cl(3)         	Cm(4)         	Cd(4)         	Cl(4)         	Cm(5)         	Cd(5)         	Cl(5)         	Cm(6)         	Cd(6)         	Cl(6)         	Cm(7)         	Cd(7)         	Cl(7)         	Cm(8)         	Cd(8)         	Cl(8)         	Cm(9)         	Cd(9)         	Cl(9)         	Cm(10)        	Cd(10)        	Cl(10)        	Cm(11)        	Cd(11)        	Cl(11)        	Cm(12)        	Cd(12)        	Cl(12)        	Cm(13)        	Cd(13)        	Cl(13)        	Cm(14)        	Cd(14)        	Cl(14)        	Cm(15)        	Cd(15)        	Cl(15)        	Cm(16)        	Cd(16)        	Cl(16)        	Cm(17)        	Cd(17)        	Cl(17)        	Cm(18)        	Cd(18)        	Cl(18)        	Cm(19)        	Cd(19)        	Cl(19)        
0             	-3.019446e-02	4.004891e-01	-9.097624e-03	-6.032958e-02	6.451553e-01	-1.752044e-02	-8.237626e-02	8.521440e-01	-2.308245e-02	-9.461502e-02	1.007530e+00	-2.569679e-02	-1.066933e-01	1.185125e+00	-2.801480e-02	-1.211048e-01	1.361944e+00	-3.093105e-02	-1.381654e-01	1.538569e+00	-3.445761e-02	-1.558518e-01	1.702308e+00	-3.831059e-02	-1.720234e-01	1.864923e+00	-4.101890e-02	-1.875039e-01	2.037796e+00	-4.349560e-02	-2.005102e-01	2.208639e+00	-4.514886e-02	-2.111865e-01	2.365614e+00	-4.637913e-02	-2.179202e-01	2.533818e+00	-4.617128e-02	-2.205885e-01	2.701085e+00	-4.489593e-02	-2.173646e-01	2.856243e+00	-4.218481e-02	-2.100840e-01	3.022554e+00	-3.852976e-02	-1.984076e-01	3.176606e+00	-3.409612e-02	-1.744558e-01	3.345419e+00	-2.659736e-02	-1.322144e-01	3.523639e+00	-1.485810e-02	-5.604114e-02	3.750823e+00	4.739895e-03
5             	-3.310076e+01	4.446591e+00	-1.092365e+01	-4.165301e+01	3.967582e+00	-1.370981e+01	-3.892477e+01	2.699609e+00	-1.286187e+01	-3.449807e+01	1.614139e+00	-1.148552e+01	-3.174030e+01	3.921743e-01	-1.064961e+01	-2.793694e+01	-2.839560e-01	-9.510129e+00	-2.037840e+01	-3.142283e-01	-7.257200e+00	-1.025541e+01	1.911685e-01	-4.264013e+00	1.130590e+01	9.260614e-01	2.045194e+00	3.436276e+01	1.799288e+00	8.698351e+00	6.045556e+01	2.527042e+00	1.612074e+01	8.583942e+01	2.995870e+00	2.324223e+01	1.163215e+02	3.477295e+00	3.167696e+01	1.483354e+02	3.914131e+00	4.040790e+01	1.789993e+02	4.414777e+00	4.865789e+01	2.131474e+02	4.951413e+00	5.772178e+01	2.467218e+02	5.568503e+00	6.651482e+01	2.831656e+02	6.639051e+00	7.593650e+01	3.175570e+02	8.207786e+00	8.471263e+01	3.383101e+02	9.453238e+00	8.994337e+01
10            	-3.553112e+01	5.045025e+00	-1.172372e+01	-4.359387e+01	4.241188e+00	-1.435559e+01	-4.137761e+01	2.952617e+00	-1.367113e+01	-3.610816e+01	1.765759e+00	-1.203154e+01	-3.197873e+01	4.911517e-01	-1.077145e+01	-2.711736e+01	-2.166849e-01	-9.309556e+00	-1.825575e+01	-2.743691e-01	-6.665336e+00	-6.819993e+00	2.061688e-01	-3.283042e+00	1.611564e+01	9.293341e-01	3.428047e+00	4.065314e+01	1.798148e+00	1.050832e+01	6.810434e+01	2.532324e+00	1.831694e+01	9.480183e+01	3.010004e+00	2.580686e+01	1.268693e+02	3.514438e+00	3.468031e+01	1.605621e+02	3.984073e+00	4.386937e+01	1.929144e+02	4.529474e+00	5.257389e+01	2.288325e+02	5.117610e+00	6.210778e+01	2.639145e+02	5.782958e+00	7.129605e+01	3.016635e+02	6.904518e+00	8.105572e+01	3.365364e+02	8.468738e+00	8.995467e+01	3.616264e+02	1.001398e+01	9.627407e+01
15            	-3.574629e+01	5.236282e+00	-1.179534e+01	-4.307124e+01	4.273811e+00	-1.419011e+01	-4.009949e+01	2.900157e+00	-1.326556e+01	-3.446846e+01	1.682227e+00	-1.151274e+01	-2.952441e+01	3.864864e-01	-1.000063e+01	-2.365497e+01	-3.387247e-01	-8.231229e+00	-1.363999e+01	-4.195842e-01	-5.240305e+00	-1.007055e+00	3.293822e-02	-1.503170e+00	2.317731e+01	7.336885e-01	5.573153e+00	4.887971e+01	1.583760e+00	1.298952e+01	7.715536e+01	2.312970e+00	2.103266e+01	1.043497e+02	2.795079e+00	2.866204e+01	1.368999e+02	3.312336e+00	3.766930e+01	1.710269e+02	3.797206e+00	4.697702e+01	2.037371e+02	4.358092e+00	5.577800e+01	2.397715e+02	4.956623e+00	6.534295e+01	2.745369e+02	5.618189e+00	7.444849e+01	3.111612e+02	6.694403e+00	8.391761e+01	3.437684e+02	8.119414e+00	9.223813e+01	3.697975e+02	9.801870e+00	9.879276e+01
