# Force coefficient bins
# bins        : 20
# start       : 3.000355e+00
# delta       : 4.982248e-02
# direction   : (1.000000e+00 0.000000e+00 0.000000e+00)
# x co-ords  :	3.050177e+00	3.100000e+00	3.149822e+00	3.199645e+00	3.249467e+00	3.299290e+00	3.349112e+00	3.398935e+00	3.448757e+00	3.498580e+00	3.548402e+00	3.598225e+00	3.648047e+00	3.697870e+00	3.747692e+00	3.797515e+00	3.847337e+00	3.897160e+00	3.946982e+00	3.996805e+00
# y co-ords  :	0.000000e+00	0.000000e+00	0.000000e+00	0.000000e+00	0.000000e+00	0.000000e+00	0.000000e+00	0.000000e+00	0.000000e+00	0.000000e+00	0.000000e+00	0.000000e+00	0.000000e+00	0.000000e+00	0.000000e+00	0.000000e+00	0.000000e+00	0.000000e+00	0.000000e+00	0.000000e+00
# z co-ords  :	0.000000e+00	0.000000e+00	0.000000e+00	0.000000e+00	0.000000e+00	0.000000e+00	0.000000e+00	0.000000e+00	0.000000e+00	0.000000e+00	0.000000e+00	0.000000e+00	0.000000e+00	0.000000e+00	0.000000e+00	0.000000e+00	0.000000e+00	0.000000e+00	0.000000e+00	0.000000e+00
# Time        	Cm(0)         	Cd(0)         	Cl(0)         	Cm(1)         	Cd(1)         	Cl(1)         	Cm(2)         	Cd(2)         	Cl(2)         	Cm(3)         	Cd(3)         	Cl(3)         	Cm(4)         	Cd(4)         	Cl(4)         	Cm(5)         	Cd(5)         	Cl(5)         	Cm(6)         	Cd(6)         	Cl(6)         	Cm(7)         	Cd(7)         	Cl(7)         	Cm(8)         	Cd(8)         	Cl(8)         	Cm(9)         	Cd(9)         	Cl(9)         	Cm(10)        	Cd(10)        	Cl(10)        	Cm(11)        	Cd(11)        	Cl(11)        	Cm(12)        	Cd(12)        	Cl(12)        	Cm(13)        	Cd(13)        	Cl(13)        	Cm(14)        	Cd(14)        	Cl(14)        	Cm(15)        	Cd(15)        	Cl(15)        	Cm(16)        	Cd(16)        	Cl(16)        	Cm(17)        	Cd(17)        	Cl(17)        	Cm(18)        	Cd(18)        	Cl(18)        	Cm(19)        	Cd(19)        	Cl(19)        
0             	-3.019446e-02	4.004891e-01	-9.097624e-03	-6.032958e-02	6.451553e-01	-1.752044e-02	-8.237626e-02	8.521440e-01	-2.308245e-02	-9.461502e-02	1.007530e+00	-2.569679e-02	-1.066933e-01	1.185125e+00	-2.801480e-02	-1.211048e-01	1.361944e+00	-3.093105e-02	-1.381654e-01	1.538569e+00	-3.445761e-02	-1.558518e-01	1.702308e+00	-3.831059e-02	-1.720234e-01	1.864923e+00	-4.101890e-02	-1.875039e-01	2.037796e+00	-4.349560e-02	-2.005102e-01	2.208639e+00	-4.514886e-02	-2.111865e-01	2.365614e+00	-4.637913e-02	-2.179202e-01	2.533818e+00	-4.617128e-02	-2.205885e-01	2.701085e+00	-4.489593e-02	-2.173646e-01	2.856243e+00	-4.218481e-02	-2.100840e-01	3.022554e+00	-3.852976e-02	-1.984076e-01	3.176606e+00	-3.409612e-02	-1.744558e-01	3.345419e+00	-2.659736e-02	-1.322144e-01	3.523639e+00	-1.485810e-02	-5.604114e-02	3.750823e+00	4.739895e-03
5             	-3.310076e+01	4.446591e+00	-1.092365e+01	-4.165301e+01	3.967582e+00	-1.370981e+01	-3.892477e+01	2.699609e+00	-1.286187e+01	-3.449807e+01	1.614139e+00	-1.148552e+01	-3.174030e+01	3.921743e-01	-1.064961e+01	-2.793694e+01	-2.839560e-01	-9.510129e+00	-2.037840e+01	-3.142283e-01	-7.257200e+00	-1.025541e+01	1.911685e-01	-4.264013e+00	1.130590e+01	9.260614e-01	2.045194e+00	3.436276e+01	1.799288e+00	8.698351e+00	6.045556e+01	2.527042e+00	1.612074e+01	8.583942e+01	2.995870e+00	2.324223e+01	1.163215e+02	3.477295e+00	3.167696e+01	1.483354e+02	3.914131e+00	4.040790e+01	1.789993e+02	4.414777e+00	4.865789e+01	2.131474e+02	4.951413e+00	5.772178e+01	2.467218e+02	5.568503e+00	6.651482e+01	2.831656e+02	6.639051e+00	7.593650e+01	3.175570e+02	8.207786e+00	8.471263e+01	3.383101e+02	9.453238e+00	8.994337e+01
10            	-3.553112e+01	5.045025e+00	-1.172372e+01	-4.359387e+01	4.241188e+00	-1.435559e+01	-4.137761e+01	2.952617e+00	-1.367113e+01	-3.610816e+01	1.765759e+00	-1.203154e+01	-3.197873e+01	4.911517e-01	-1.077145e+01	-2.711736e+01	-2.166849e-01	-9.309556e+00	-1.825575e+01	-2.743691e-01	-6.665336e+00	-6.819993e+00	2.061688e-01	-3.283042e+00	1.611564e+01	9.293341e-01	3.428047e+00	4.065314e+01	1.798148e+00	1.050832e+01	6.810434e+01	2.532324e+00	1.831694e+01	9.480183e+01	3.010004e+00	2.580686e+01	1.268693e+02	3.514438e+00	3.468031e+01	1.605621e+02	3.984073e+00	4.386937e+01	1.929144e+02	4.529474e+00	5.257389e+01	2.288325e+02	5.117610e+00	6.210778e+01	2.639145e+02	5.782958e+00	7.129605e+01	3.016635e+02	6.904518e+00	8.105572e+01	3.365364e+02	8.468738e+00	8.995467e+01	3.616264e+02	1.001398e+01	9.627407e+01
15            	-3.574629e+01	5.236282e+00	-1.179534e+01	-4.307124e+01	4.273811e+00	-1.419011e+01	-4.009949e+01	2.900157e+00	-1.326556e+01	-3.446846e+01	1.682227e+00	-1.151274e+01	-2.952441e+01	3.864864e-01	-1.000063e+01	-2.365497e+01	-3.387247e-01	-8.231229e+00	-1.363999e+01	-4.195842e-01	-5.240305e+00	-1.007055e+00	3.293822e-02	-1.503170e+00	2.317731e+01	7.336885e-01	5.573153e+00	4.887971e+01	1.583760e+00	1.298952e+01	7.715536e+01	2.312970e+00	2.103266e+01	1.043497e+02	2.795079e+00	2.866204e+01	1.368999e+02	3.312336e+00	3.766930e+01	1.710269e+02	3.797206e+00	4.697702e+01	2.037371e+02	4.358092e+00	5.577800e+01	2.397715e+02	4.956623e+00	6.534295e+01	2.745369e+02	5.618189e+00	7.444849e+01	3.111612e+02	6.694403e+00	8.391761e+01	3.437684e+02	8.119414e+00	9.223813e+01	3.697975e+02	9.801870e+00	9.879276e+01
20            	-3.507003e+01	5.323906e+00	-1.157336e+01	-4.172757e+01	4.199706e+00	-1.375366e+01	-3.807860e+01	2.715992e+00	-1.261426e+01	-3.188203e+01	1.447107e+00	-1.068436e+01	-2.602372e+01	1.197270e-01	-8.889515e+00	-1.918976e+01	-6.335388e-01	-6.825987e+00	-8.226150e+00	-7.419883e-01	-3.549985e+00	5.228190e+00	-3.127074e-01	4.306854e-01	3.024554e+01	3.748064e-01	7.750612e+00	5.679865e+01	1.216064e+00	1.541243e+01	8.556139e+01	1.948797e+00	2.359425e+01	1.127118e+02	2.446046e+00	3.121167e+01	1.449225e+02	2.985214e+00	4.012556e+01	1.785390e+02	3.488401e+00	4.929460e+01	2.107093e+02	4.056901e+00	5.795061e+01	2.458298e+02	4.649035e+00	6.727317e+01	2.792476e+02	5.281434e+00	7.602589e+01	3.135380e+02	6.265313e+00	8.489158e+01	3.431573e+02	7.521879e+00	9.244906e+01	3.691863e+02	9.275046e+00	9.900338e+01
25            	-3.410243e+01	5.398293e+00	-1.125492e+01	-4.009478e+01	4.167281e+00	-1.321994e+01	-3.591370e+01	2.597702e+00	-1.191188e+01	-2.915090e+01	1.293274e+00	-9.804463e+00	-2.239869e+01	-5.379895e-02	-7.732974e+00	-1.462066e+01	-8.266146e-01	-5.381433e+00	-2.814839e+00	-9.619615e-01	-1.852229e+00	1.129621e+01	-5.619931e-01	2.323153e+00	3.668373e+01	1.044374e-01	9.751315e+00	6.365571e+01	9.286340e-01	1.753395e+01	9.262968e+01	1.656732e+00	2.577595e+01	1.194249e+02	2.164892e+00	3.329417e+01	1.506599e+02	2.724364e+00	4.193887e+01	1.829288e+02	3.242050e+00	5.074101e+01	2.138217e+02	3.804672e+00	5.905361e+01	2.472974e+02	4.369738e+00	6.793970e+01	2.787034e+02	4.948582e+00	7.616547e+01	3.099695e+02	5.806778e+00	8.424896e+01	3.369065e+02	6.928587e+00	9.112114e+01	3.621453e+02	8.702004e+00	9.747704e+01
30            	-3.299433e+01	5.427873e+00	-1.088977e+01	-3.811557e+01	4.132988e+00	-1.257215e+01	-3.328770e+01	2.509849e+00	-1.105853e+01	-2.586421e+01	1.176957e+00	-8.743793e+00	-1.824060e+01	-1.901544e-01	-6.402593e+00	-9.573459e+00	-9.814015e-01	-3.779817e+00	3.066742e+00	-1.139957e+00	2.864416e-04	1.776151e+01	-7.658387e-01	4.348742e+00	4.352390e+01	-1.220767e-01	1.188650e+01	7.073513e+01	6.790956e-01	1.973815e+01	9.976288e+01	1.395268e+00	2.799548e+01	1.261085e+02	1.913082e+00	3.538804e+01	1.560166e+02	2.503198e+00	4.366674e+01	1.862792e+02	3.051090e+00	5.192279e+01	2.155808e+02	3.610059e+00	5.980751e+01	2.473520e+02	4.144135e+00	6.824118e+01	2.768114e+02	4.667177e+00	7.595700e+01	3.055405e+02	5.420252e+00	8.338410e+01	3.317162e+02	6.542020e+00	9.006165e+01	3.548202e+02	8.202329e+00	9.588109e+01
35            	-3.173417e+01	5.473517e+00	-1.047420e+01	-3.578209e+01	4.153670e+00	-1.180848e+01	-3.012138e+01	2.510499e+00	-1.002938e+01	-2.202589e+01	1.164147e+00	-7.503577e+00	-1.366852e+01	-2.154769e-01	-4.935180e+00	-4.281387e+00	-1.020572e+00	-2.092746e+00	9.051805e+00	-1.197728e+00	1.895776e+00	2.423913e+01	-8.463213e-01	6.390375e+00	5.027651e+01	-2.232633e-01	1.400849e+01	7.770713e+01	5.525892e-01	2.192340e+01	1.066320e+02	1.246792e+00	3.015155e+01	1.322335e+02	1.767685e+00	3.733586e+01	1.600601e+02	2.399008e+00	4.504031e+01	1.871878e+02	2.999401e+00	5.244288e+01	2.148184e+02	3.547294e+00	5.987799e+01	2.451755e+02	4.036324e+00	6.793620e+01	2.728876e+02	4.497159e+00	7.519415e+01	2.996941e+02	5.169599e+00	8.212354e+01	3.261551e+02	6.355382e+00	8.887425e+01	3.460060e+02	7.803529e+00	9.387728e+01
40            	-3.040358e+01	5.515485e+00	-1.003535e+01	-3.338120e+01	4.177009e+00	-1.102276e+01	-2.682364e+01	2.526740e+00	-8.957521e+00	-1.813298e+01	1.175089e+00	-6.244698e+00	-9.239200e+00	-2.111688e-01	-3.510164e+00	6.298438e-01	-1.024269e+00	-5.206620e-01	1.440408e+01	-1.213660e+00	3.600530e+00	2.994024e+01	-8.810116e-01	8.198669e+00	5.609074e+01	-2.762127e-01	1.584988e+01	8.351415e+01	4.798017e-01	2.376272e+01	1.119476e+02	1.161744e+00	3.185133e+01	1.358886e+02	1.707355e+00	3.857096e+01	1.600829e+02	2.410736e+00	4.527282e+01	1.839064e+02	3.045379e+00	5.177461e+01	2.107649e+02	3.535482e+00	5.900126e+01	2.398513e+02	3.946324e+00	6.672203e+01	2.656306e+02	4.320032e+00	7.347324e+01	2.908261e+02	4.917076e+00	7.998505e+01	3.175626e+02	6.144154e+00	8.680689e+01	3.374938e+02	7.620873e+00	9.183098e+01
45            	-2.902917e+01	5.556729e+00	-9.582053e+00	-3.092655e+01	4.195629e+00	-1.021949e+01	-2.337755e+01	2.538599e+00	-7.837995e+00	-1.397360e+01	1.184242e+00	-4.901032e+00	-4.400951e+00	-2.065144e-01	-1.956254e+00	6.092176e+00	-1.027033e+00	1.223702e+00	2.054118e+01	-1.231089e+00	5.547787e+00	3.677402e+01	-9.242327e-01	1.035254e+01	6.342545e+01	-3.452488e-01	1.815032e+01	9.108389e+01	3.904707e-01	2.613111e+01	1.188133e+02	1.089854e+00	3.402010e+01	1.403500e+02	1.713077e+00	4.006700e+01	1.617359e+02	2.484306e+00	4.599316e+01	1.848330e+02	3.099287e+00	5.229590e+01	2.112880e+02	3.546120e+00	5.941373e+01	2.394175e+02	3.908805e+00	6.688030e+01	2.643665e+02	4.252965e+00	7.341373e+01	2.911547e+02	4.961112e+00	8.033741e+01	3.192266e+02	6.306987e+00	8.750245e+01	3.421130e+02	8.100942e+00	9.327039e+01
50            	-2.764892e+01	5.595241e+00	-9.126832e+00	-2.851449e+01	4.208402e+00	-9.429998e+00	-2.003365e+01	2.543367e+00	-6.751306e+00	-9.914070e+00	1.188774e+00	-3.589468e+00	4.014749e-01	-2.022541e-01	-4.145945e-01	1.164723e+01	-1.027971e+00	2.995049e+00	2.698150e+01	-1.248768e+00	7.585392e+00	4.422490e+01	-9.787105e-01	1.268984e+01	7.159297e+01	-4.371761e-01	2.069735e+01	9.906223e+01	2.908318e-01	2.862425e+01	1.240030e+02	1.096711e+00	3.572188e+01	1.418648e+02	1.853225e+00	4.073932e+01	1.614012e+02	2.658944e+00	4.615395e+01	1.845342e+02	3.224712e+00	5.246554e+01	2.101218e+02	3.627977e+00	5.934987e+01	2.371192e+02	3.947791e+00	6.651556e+01	2.621104e+02	4.308669e+00	7.305977e+01	2.914249e+02	5.185039e+00	8.063812e+01	3.197125e+02	6.570294e+00	8.785985e+01	3.411910e+02	8.289659e+00	9.327239e+01
55            	-2.633987e+01	5.640209e+00	-8.695020e+00	-2.632226e+01	4.233504e+00	-8.711996e+00	-1.711153e+01	2.565040e+00	-5.800451e+00	-6.445601e+00	1.215193e+00	-2.466870e+00	4.454437e+00	-1.689525e-01	8.891174e-01	1.637444e+01	-9.937900e-01	4.504616e+00	3.263984e+01	-1.230958e+00	9.375129e+00	5.105070e+01	-1.008737e+00	1.482591e+01	7.863450e+01	-4.993420e-01	2.289703e+01	1.029857e+02	3.321465e-01	2.992644e+01	1.223874e+02	1.344354e+00	3.544988e+01	1.366871e+02	2.206494e+00	3.946880e+01	1.553284e+02	2.982218e+00	4.463450e+01	1.786020e+02	3.454660e+00	5.098326e+01	2.026068e+02	3.778351e+00	5.744142e+01	2.276203e+02	4.025867e+00	6.407989e+01	2.525037e+02	4.403034e+00	7.059549e+01	2.822636e+02	5.329461e+00	7.829035e+01	3.101126e+02	6.723008e+00	8.539976e+01	3.298033e+02	8.289272e+00	9.036167e+01
60            	-2.511345e+01	5.681974e+00	-8.290454e+00	-2.429629e+01	4.257705e+00	-8.048308e+00	-1.444719e+01	2.586793e+00	-4.933085e+00	-3.301487e+00	1.242820e+00	-1.448670e+00	8.148987e+00	-1.321007e-01	2.077905e+00	2.080119e+01	-9.543368e-01	5.916954e+00	3.823116e+01	-1.211771e+00	1.113786e+01	5.799374e+01	-1.045387e+00	1.698984e+01	8.459038e+01	-5.226831e-01	2.477344e+01	1.042050e+02	4.818581e-01	3.043732e+01	1.190644e+02	1.648104e+00	3.466975e+01	1.297244e+02	2.610780e+00	3.766852e+01	1.476363e+02	3.340109e+00	4.263072e+01	1.711746e+02	3.704698e+00	4.905030e+01	1.936884e+02	3.939645e+00	5.510673e+01	2.174812e+02	4.144931e+00	6.142034e+01	2.429896e+02	4.579393e+00	6.810006e+01	2.719573e+02	5.486925e+00	7.559112e+01	3.001811e+02	6.960799e+00	8.279583e+01	3.226956e+02	8.801448e+00	8.847235e+01
65            	-2.390459e+01	5.700090e+00	-7.891799e+00	-2.223341e+01	4.246421e+00	-7.373012e+00	-1.165242e+01	2.561954e+00	-4.024438e+00	8.992171e-02	1.215504e+00	-3.525800e-01	1.229199e+01	-1.580757e-01	3.406760e+00	2.596483e+01	-9.846754e-01	7.557237e+00	4.498241e+01	-1.270621e+00	1.325561e+01	6.613541e+01	-1.154530e+00	1.952057e+01	9.121394e+01	-5.794125e-01	2.686116e+01	1.083565e+02	5.213173e-01	3.181174e+01	1.192126e+02	1.850239e+00	3.490830e+01	1.220457e+02	3.113624e+00	3.571487e+01	1.405681e+02	3.787990e+00	4.084219e+01	1.672327e+02	4.021908e+00	4.811219e+01	1.909962e+02	4.228988e+00	5.450405e+01	2.177645e+02	4.555223e+00	6.160722e+01	2.455962e+02	5.116370e+00	6.889709e+01	2.752306e+02	6.083944e+00	7.656106e+01	3.044512e+02	7.664918e+00	8.402129e+01	3.316157e+02	1.000434e+01	9.086850e+01
70            	-2.287999e+01	5.693803e+00	-7.553923e+00	-2.063747e+01	4.203971e+00	-6.850175e+00	-9.690710e+00	2.499456e+00	-3.385123e+00	2.270682e+00	1.142638e+00	3.554511e-01	1.466673e+01	-2.376640e-01	4.174784e+00	2.856710e+01	-1.067415e+00	8.394626e+00	4.791188e+01	-1.360068e+00	1.419148e+01	6.813515e+01	-1.216565e+00	2.018186e+01	9.047724e+01	-5.413167e-01	2.672225e+01	1.061717e+02	6.056316e-01	3.125452e+01	1.149841e+02	1.993060e+00	3.377093e+01	1.101384e+02	3.520913e+00	3.242656e+01	1.332575e+02	3.963874e+00	3.881881e+01	1.638078e+02	4.050676e+00	4.714695e+01	1.904323e+02	4.328812e+00	5.430771e+01	2.214191e+02	4.846452e+00	6.253209e+01	2.499219e+02	5.458668e+00	6.999910e+01	2.790560e+02	6.424903e+00	7.753334e+01	3.067985e+02	7.900719e+00	8.461729e+01	3.342723e+02	1.034058e+01	9.154021e+01
75            	-2.201312e+01	5.707494e+00	-7.267951e+00	-1.936326e+01	4.199676e+00	-6.432205e+00	-8.232739e+00	2.489747e+00	-2.908527e+00	3.768436e+00	1.133186e+00	8.445799e-01	1.609694e+01	-2.435793e-01	4.643077e+00	2.984184e+01	-1.067578e+00	8.815609e+00	4.889146e+01	-1.354790e+00	1.452400e+01	6.782600e+01	-1.179218e+00	2.013296e+01	8.832410e+01	-4.618003e-01	2.613395e+01	1.030116e+02	6.640195e-01	3.037532e+01	1.140364e+02	1.844493e+00	3.351739e+01	1.036836e+02	3.478433e+00	3.063820e+01	1.238863e+02	3.892450e+00	3.621952e+01	1.561571e+02	3.946057e+00	4.501489e+01	1.871553e+02	4.370807e+00	5.335311e+01	2.201045e+02	4.983742e+00	6.210000e+01	2.469079e+02	5.543088e+00	6.912220e+01	2.730473e+02	6.372546e+00	7.588219e+01	2.978342e+02	7.670971e+00	8.221047e+01	3.235269e+02	9.962895e+00	8.868142e+01
80            	-2.122066e+01	5.724697e+00	-7.006556e+00	-1.809474e+01	4.204054e+00	-6.016515e+00	-6.628149e+00	2.491928e+00	-2.385597e+00	5.593850e+00	1.139024e+00	1.436961e+00	1.813412e+01	-2.310117e-01	5.301157e+00	3.208655e+01	-1.050458e+00	9.537170e+00	5.136491e+01	-1.341090e+00	1.531460e+01	7.027971e+01	-1.174778e+00	2.091795e+01	9.052496e+01	-4.796051e-01	2.684495e+01	1.047781e+02	5.971954e-01	3.096104e+01	1.143430e+02	1.719203e+00	3.368724e+01	1.073134e+02	3.085930e+00	3.174514e+01	1.147568e+02	3.897814e+00	3.379685e+01	1.504571e+02	4.050003e+00	4.352623e+01	1.853811e+02	4.593959e+00	5.292188e+01	2.203120e+02	5.280039e+00	6.219557e+01	2.494206e+02	5.977879e+00	6.982208e+01	2.775068e+02	6.944160e+00	7.708917e+01	2.984185e+02	8.013970e+00	8.242727e+01	3.233284e+02	1.028665e+01	8.870114e+01
85            	-2.037606e+01	5.739734e+00	-6.728058e+00	-1.657470e+01	4.202274e+00	-5.519164e+00	-4.478839e+00	2.483320e+00	-1.687552e+00	8.281736e+00	1.131733e+00	2.304255e+00	2.150496e+01	-2.341940e-01	6.380026e+00	3.626624e+01	-1.055917e+00	1.086294e+01	5.657534e+01	-1.364502e+00	1.695045e+01	7.648506e+01	-1.235199e+00	2.284897e+01	9.732450e+01	-5.824382e-01	2.894972e+01	1.117019e+02	4.394844e-01	3.310192e+01	1.199096e+02	1.528106e+00	3.544392e+01	1.185036e+02	2.591860e+00	3.506821e+01	1.123988e+02	3.993792e+00	3.338316e+01	1.505779e+02	4.292003e+00	4.378755e+01	1.900022e+02	4.892531e+00	5.439372e+01	2.330759e+02	5.859555e+00	6.582851e+01	2.717088e+02	6.961983e+00	7.595252e+01	3.090569e+02	8.398579e+00	8.561927e+01	3.281701e+02	9.247554e+00	9.049962e+01	3.513399e+02	1.131912e+01	9.633507e+01
90            	-1.943168e+01	5.717988e+00	-6.416865e+00	-1.477781e+01	4.137314e+00	-4.932014e+00	-1.828067e+00	2.388451e+00	-8.283858e-01	1.170362e+01	1.019988e+00	3.405492e+00	2.593373e+01	-3.607450e-01	7.792884e+00	4.186755e+01	-1.199894e+00	1.263336e+01	6.356006e+01	-1.534099e+00	1.913669e+01	8.455142e+01	-1.429662e+00	2.535605e+01	1.063831e+02	-7.960945e-01	3.174680e+01	1.215811e+02	2.084905e-01	3.613624e+01	1.308420e+02	1.262653e+00	3.877701e+01	1.335656e+02	2.253403e+00	3.955240e+01	1.240218e+02	4.063166e+00	3.693418e+01	1.615705e+02	4.580356e+00	4.716602e+01	2.074802e+02	5.281797e+00	5.951615e+01	2.588279e+02	6.465946e+00	7.314685e+01	3.100182e+02	8.066725e+00	8.656193e+01	3.623149e+02	1.023695e+01	1.001003e+02	3.887078e+02	1.146554e+01	1.068434e+02	3.986944e+02	1.214060e+01	1.093558e+02
95            	-1.822214e+01	5.676994e+00	-6.018458e+00	-1.228533e+01	4.027814e+00	-4.118418e+00	2.059699e+00	2.226473e+00	4.296114e-01	1.691135e+01	8.247981e-01	5.077789e+00	3.290742e+01	-5.887642e-01	1.001162e+01	5.090908e+01	-1.465067e+00	1.548252e+01	7.500162e+01	-1.843974e+00	2.270698e+01	9.817193e+01	-1.779449e+00	2.957218e+01	1.225284e+02	-1.170214e+00	3.670114e+01	1.413074e+02	-2.068878e-01	4.212328e+01	1.550558e+02	8.340932e-01	4.603924e+01	1.643988e+02	1.845021e+00	4.866870e+01	1.596377e+02	3.881258e+00	4.738956e+01	1.947284e+02	4.779023e+00	5.695130e+01	2.476460e+02	5.576844e+00	7.118697e+01	3.048386e+02	6.814619e+00	8.636971e+01	3.675884e+02	8.826546e+00	1.028101e+02	4.384698e+02	1.186528e+01	1.211656e+02	4.690141e+02	1.318319e+01	1.289664e+02	4.786829e+02	1.352628e+01	1.314031e+02
100           	-1.681261e+01	5.699429e+00	-5.553799e+00	-9.607571e+00	4.014441e+00	-3.242888e+00	6.015461e+00	2.190472e+00	1.712575e+00	2.202962e+01	7.797842e-01	6.725909e+00	3.955548e+01	-6.419157e-01	1.213341e+01	5.934132e+01	-1.538067e+00	1.814858e+01	8.552321e+01	-1.954534e+00	2.600114e+01	1.106563e+02	-1.937699e+00	3.344829e+01	1.369479e+02	-1.362887e+00	4.114315e+01	1.581253e+02	-4.341240e-01	4.725695e+01	1.757413e+02	5.691739e-01	5.227155e+01	1.893664e+02	1.582876e+00	5.610187e+01	1.906054e+02	3.553049e+00	5.648902e+01	2.153920e+02	4.821367e+00	6.324228e+01	2.694979e+02	5.525960e+00	7.779563e+01	3.269851e+02	6.537196e+00	9.305642e+01	3.813825e+02	7.954980e+00	1.073050e+02	4.658066e+02	1.163885e+01	1.291647e+02	4.960361e+02	1.275936e+01	1.368838e+02	5.101117e+02	1.330684e+01	1.404262e+02
105           	-1.546457e+01	5.746115e+00	-5.109149e+00	-7.313466e+00	4.050721e+00	-2.491461e+00	9.112537e+00	2.228585e+00	2.720272e+00	2.577257e+01	8.277555e-01	7.936701e+00	4.408830e+01	-5.813128e-01	1.358903e+01	6.475650e+01	-1.476111e+00	1.987368e+01	9.192655e+01	-1.909467e+00	2.802370e+01	1.177357e+02	-1.920060e+00	3.567158e+01	1.445360e+02	-1.380531e+00	4.351514e+01	1.658532e+02	-4.836016e-01	4.966939e+01	1.826617e+02	5.229481e-01	5.445451e+01	1.967857e+02	1.470086e+00	5.842316e+01	2.046201e+02	3.124275e+00	6.062866e+01	2.130467e+02	4.782873e+00	6.292836e+01	2.636625e+02	5.365920e+00	7.654061e+01	3.200537e+02	6.202139e+00	9.150885e+01	3.694709e+02	7.283725e+00	1.044556e+02	4.536832e+02	1.099446e+01	1.262383e+02	4.950451e+02	1.287779e+01	1.368113e+02	5.069166e+02	1.324354e+01	1.398001e+02
110           	-1.401745e+01	5.774909e+00	-4.631914e+00	-4.785601e+00	4.058739e+00	-1.663912e+00	1.260023e+01	2.230013e+00	3.854014e+00	3.005131e+01	8.332914e-01	9.319074e+00	4.933730e+01	-5.688892e-01	1.527202e+01	7.107342e+01	-1.467426e+00	2.188269e+01	9.936516e+01	-1.920523e+00	3.037026e+01	1.258129e+02	-1.953697e+00	3.820774e+01	1.532359e+02	-1.446987e+00	4.623323e+01	1.752258e+02	-6.036061e-01	5.258127e+01	1.923387e+02	3.554844e-01	5.745304e+01	2.050320e+02	1.318417e+00	6.102015e+01	2.224662e+02	2.612670e+00	6.586741e+01	2.188278e+02	4.631436e+00	6.489373e+01	2.658795e+02	5.281591e+00	7.754559e+01	3.246076e+02	6.073072e+00	9.313337e+01	3.749901e+02	7.093574e+00	1.063322e+02	4.472939e+02	1.007463e+01	1.250225e+02	5.148946e+02	1.383817e+01	1.423081e+02	5.315345e+02	1.457504e+01	1.465015e+02
115           	-1.249007e+01	5.801604e+00	-4.128205e+00	-2.114493e+00	4.065794e+00	-7.894551e-01	1.628457e+01	2.232346e+00	5.051731e+00	3.456608e+01	8.418890e-01	1.077783e+01	5.486598e+01	-5.509875e-01	1.704495e+01	7.771361e+01	-1.452007e+00	2.399498e+01	1.071536e+02	-1.925246e+00	3.282815e+01	1.342799e+02	-1.984617e+00	4.086707e+01	1.623760e+02	-1.519610e+00	4.908925e+01	1.848249e+02	-7.360121e-01	5.556967e+01	2.030869e+02	1.070145e-01	6.076721e+01	2.152667e+02	1.055166e+00	6.419324e+01	2.347000e+02	2.266528e+00	6.958586e+01	2.256789e+02	4.401062e+00	6.716259e+01	2.658965e+02	5.317664e+00	7.797511e+01	3.276771e+02	6.137035e+00	9.437225e+01	3.823642e+02	7.255661e+00	1.086991e+02	4.385828e+02	9.207082e+00	1.232320e+02	5.266994e+02	1.456123e+01	1.457494e+02	5.556193e+02	1.637409e+01	1.530464e+02
120           	-1.094496e+01	5.806163e+00	-3.618692e+00	5.304426e-01	4.042809e+00	7.649946e-02	1.986242e+01	2.198850e+00	6.215252e+00	3.888562e+01	8.097222e-01	1.217444e+01	6.007232e+01	-5.783341e-01	1.871631e+01	8.387919e+01	-1.482960e+00	2.595918e+01	1.142755e+02	-1.973449e+00	3.508022e+01	1.417808e+02	-2.048935e+00	4.323176e+01	1.700254e+02	-1.604466e+00	5.149735e+01	1.926478e+02	-8.629726e-01	5.802777e+01	2.103608e+02	-4.527682e-02	6.306896e+01	2.245814e+02	8.226680e-01	6.706567e+01	2.410076e+02	2.158500e+00	7.162856e+01	2.304711e+02	4.254573e+00	6.880160e+01	2.605852e+02	5.442013e+00	7.689674e+01	3.259973e+02	6.350714e+00	9.425619e+01	3.872819e+02	7.676432e+00	1.103110e+02	4.377638e+02	9.187052e+00	1.233691e+02	5.219437e+02	1.439779e+01	1.448563e+02	5.724925e+02	1.820709e+01	1.576167e+02
125           	-9.493293e+00	5.776647e+00	-3.140054e+00	2.899413e+00	3.972864e+00	8.522789e-01	2.291688e+01	2.107957e+00	7.209528e+00	4.242385e+01	7.101409e-01	1.332064e+01	6.411765e+01	-6.829732e-01	2.001954e+01	8.837879e+01	-1.592862e+00	2.740105e+01	1.190118e+02	-2.088492e+00	3.659346e+01	1.460539e+02	-2.150805e+00	4.460777e+01	1.738252e+02	-1.695881e+00	5.273514e+01	1.954369e+02	-9.420716e-01	5.897371e+01	2.125851e+02	-1.127250e-01	6.385464e+01	2.271811e+02	7.685277e-01	6.795491e+01	2.461121e+02	2.043592e+00	7.320979e+01	2.387850e+02	4.037814e+00	7.126275e+01	2.567575e+02	5.413782e+00	7.609461e+01	3.209084e+02	6.313661e+00	9.311663e+01	3.886683e+02	7.911207e+00	1.108675e+02	4.434215e+02	9.618224e+00	1.250405e+02	4.997751e+02	1.282162e+01	1.394093e+02	5.714309e+02	1.868233e+01	1.574902e+02
130           	-8.232619e+00	5.749017e+00	-2.724303e+00	4.791370e+00	3.915169e+00	1.472577e+00	2.513854e+01	2.038620e+00	7.934960e+00	4.477050e+01	6.377951e-01	1.408536e+01	6.646184e+01	-7.544907e-01	2.078357e+01	9.053427e+01	-1.660509e+00	2.810763e+01	1.206023e+02	-2.146413e+00	3.713046e+01	1.465682e+02	-2.183556e+00	4.482580e+01	1.736213e+02	-1.732214e+00	5.274295e+01	1.938368e+02	-9.713492e-01	5.857953e+01	2.098959e+02	-1.646851e-01	6.314964e+01	2.246369e+02	6.948535e-01	6.729102e+01	2.461790e+02	1.803078e+00	7.326422e+01	2.464953e+02	3.552988e+00	7.339839e+01	2.489200e+02	5.253193e+00	7.405520e+01	3.033658e+02	5.997679e+00	8.849960e+01	3.655455e+02	7.392884e+00	1.047844e+02	4.352747e+02	1.006612e+01	1.228400e+02	4.613384e+02	1.101500e+01	1.294837e+02	5.303787e+02	1.686983e+01	1.468809e+02
135           	-7.214626e+00	5.699881e+00	-2.388634e+00	6.227785e+00	3.830594e+00	1.943699e+00	2.668898e+01	1.937082e+00	8.442326e+00	4.625071e+01	5.276054e-01	1.457059e+01	6.767852e+01	-8.695072e-01	2.118717e+01	9.125419e+01	-1.772234e+00	2.835971e+01	1.204716e+02	-2.243499e+00	3.712689e+01	1.453103e+02	-2.252799e+00	4.448812e+01	1.708489e+02	-1.771564e+00	5.196239e+01	1.905690e+02	-1.051094e+00	5.765507e+01	2.058836e+02	-2.522081e-01	6.201415e+01	2.202970e+02	6.207726e-01	6.606329e+01	2.405026e+02	1.726193e+00	7.166561e+01	2.492771e+02	3.214612e+00	7.409371e+01	2.373701e+02	5.259523e+00	7.090722e+01	2.846861e+02	6.319732e+00	8.345838e+01	3.335471e+02	7.103667e+00	9.625456e+01	4.146711e+02	1.059092e+01	1.172465e+02	4.397778e+02	1.148997e+01	1.236643e+02	4.734875e+02	1.437457e+01	1.321373e+02
140           	-6.385331e+00	5.703113e+00	-2.114981e+00	7.331587e+00	3.831357e+00	2.306494e+00	2.778502e+01	1.946599e+00	8.802865e+00	4.717482e+01	5.482398e-01	1.487729e+01	6.821708e+01	-8.343533e-01	2.137473e+01	9.118057e+01	-1.721222e+00	2.836081e+01	1.195202e+02	-2.175873e+00	3.686446e+01	1.434245e+02	-2.174737e+00	4.394876e+01	1.677461e+02	-1.701897e+00	5.106717e+01	1.842477e+02	-9.367765e-01	5.583242e+01	1.992013e+02	-2.153250e-01	6.008666e+01	2.139526e+02	6.020275e-01	6.423006e+01	2.325792e+02	1.645372e+00	6.939458e+01	2.489455e+02	2.822984e+00	7.387873e+01	2.291042e+02	4.762913e+00	6.857147e+01	2.644528e+02	6.230328e+00	7.793677e+01	3.123252e+02	6.924979e+00	9.047829e+01	3.818341e+02	9.712013e+00	1.084438e+02	4.262353e+02	1.189159e+01	1.198059e+02	4.537630e+02	1.416750e+01	1.267191e+02
145           	-5.858051e+00	5.718045e+00	-1.940846e+00	7.888309e+00	3.858287e+00	2.490452e+00	2.809881e+01	1.993168e+00	8.909688e+00	4.710987e+01	6.133401e-01	1.486539e+01	6.750702e+01	-7.472637e-01	2.116341e+01	8.956928e+01	-1.611142e+00	2.787494e+01	1.167378e+02	-2.043435e+00	3.602694e+01	1.394436e+02	-2.030400e+00	4.275620e+01	1.620188e+02	-1.568997e+00	4.936384e+01	1.774886e+02	-8.904994e-01	5.383133e+01	1.867440e+02	-4.899332e-02	5.646666e+01	2.021060e+02	6.433153e-01	6.077770e+01	2.209535e+02	1.542438e+00	6.600442e+01	2.397677e+02	2.574702e+00	7.114961e+01	2.256057e+02	4.290456e+00	6.737844e+01	2.348484e+02	5.833079e+00	6.981194e+01	2.893788e+02	7.013553e+00	8.410138e+01	3.452666e+02	8.931319e+00	9.854433e+01	4.153889e+02	1.304752e+01	1.164754e+02	4.278257e+02	1.379420e+01	1.196040e+02
150           	-5.147955e+00	5.754022e+00	-1.706628e+00	9.285731e+00	3.900437e+00	2.947578e+00	3.021973e+01	2.044405e+00	9.597777e+00	4.987925e+01	6.780567e-01	1.575741e+01	7.109777e+01	-6.680900e-01	2.231003e+01	9.406666e+01	-1.530148e+00	2.929843e+01	1.223077e+02	-1.980262e+00	3.777318e+01	1.462572e+02	-2.015179e+00	4.487128e+01	1.693699e+02	-1.603556e+00	5.163625e+01	1.855400e+02	-1.011615e+00	5.630427e+01	1.992681e+02	-3.352035e-01	6.021167e+01	2.093292e+02	6.232016e-01	6.303969e+01	2.332600e+02	1.398676e+00	6.966755e+01	2.597153e+02	2.220306e+00	7.689043e+01	2.674768e+02	3.667579e+00	7.901051e+01	2.584120e+02	5.346411e+00	7.659668e+01	3.182236e+02	6.959139e+00	9.226245e+01	3.872951e+02	9.344004e+00	1.101254e+02	4.827031e+02	1.519606e+01	1.344960e+02	5.345577e+02	1.914046e+01	1.475811e+02
155           	-4.432669e+00	5.787155e+00	-1.470645e+00	1.059305e+01	3.944735e+00	3.375678e+00	3.209989e+01	2.103876e+00	1.020888e+01	5.226127e+01	7.559607e-01	1.652644e+01	7.413811e+01	-5.694323e-01	2.328324e+01	9.788254e+01	-1.424035e+00	3.050864e+01	1.271156e+02	-1.890531e+00	3.928207e+01	1.520960e+02	-1.973231e+00	4.668606e+01	1.759253e+02	-1.634505e+00	5.366050e+01	1.914841e+02	-1.074292e+00	5.815361e+01	2.080368e+02	-5.078542e-01	6.285968e+01	2.193208e+02	4.006807e-01	6.603796e+01	2.318242e+02	1.554338e+00	6.950884e+01	2.607997e+02	2.326883e+00	7.741088e+01	2.910117e+02	3.309145e+00	8.555128e+01	2.773305e+02	5.237029e+00	8.193512e+01	3.210786e+02	6.834482e+00	9.338603e+01	3.999799e+02	9.841399e+00	1.137973e+02	5.015323e+02	1.618984e+01	1.397302e+02	5.740026e+02	2.206995e+01	1.580133e+02
160           	-3.632637e+00	5.783594e+00	-1.206897e+00	1.210701e+01	3.929342e+00	3.870805e+00	3.433652e+01	2.083620e+00	1.093451e+01	5.515790e+01	7.379028e-01	1.745948e+01	7.791766e+01	-5.835161e-01	2.448979e+01	1.026981e+02	-1.443585e+00	3.203136e+01	1.331325e+02	-1.931602e+00	4.116618e+01	1.590467e+02	-2.046037e+00	4.884723e+01	1.833444e+02	-1.736105e+00	5.595869e+01	2.013211e+02	-1.273304e+00	6.114804e+01	2.178253e+02	-5.926406e-01	6.584081e+01	2.354844e+02	1.463331e-01	7.080083e+01	2.426157e+02	1.535484e+00	7.279878e+01	2.625477e+02	2.645170e+00	7.823620e+01	3.061485e+02	3.433109e+00	8.996622e+01	3.137299e+02	5.234723e+00	9.201356e+01	3.351266e+02	6.953251e+00	9.761204e+01	4.147972e+02	1.020996e+01	1.182239e+02	5.190014e+02	1.673785e+01	1.448273e+02	6.018787e+02	2.351985e+01	1.657458e+02
165           	-2.779913e+00	5.785277e+00	-9.257129e-01	1.364867e+01	3.924741e+00	4.375360e+00	3.654495e+01	2.079692e+00	1.165183e+01	5.796499e+01	7.405963e-01	1.836499e+01	8.153068e+01	-5.720756e-01	2.564503e+01	1.072709e+02	-1.434060e+00	3.347962e+01	1.387853e+02	-1.941306e+00	4.293945e+01	1.655318e+02	-2.087222e+00	5.086732e+01	1.905535e+02	-1.816998e+00	5.819069e+01	2.094757e+02	-1.388776e+00	6.365126e+01	2.293296e+02	-7.532481e-01	6.929814e+01	2.467387e+02	3.521171e-02	7.418809e+01	2.582250e+02	1.352284e+00	7.739261e+01	2.602638e+02	2.922602e+00	7.796435e+01	3.017803e+02	3.752184e+00	8.912945e+01	3.385151e+02	5.110557e+00	9.890402e+01	3.405672e+02	6.815048e+00	9.944904e+01	4.101007e+02	1.003428e+01	1.174400e+02	5.081878e+02	1.610889e+01	1.424766e+02	6.036556e+02	2.396975e+01	1.665732e+02