/*--------------------------------*- C++ -*----------------------------------*\
  =========                 |
  \\      /  F ield         | OpenFOAM: The Open Source CFD Toolbox
   \\    /   O peration     | Website:  https://openfoam.org
    \\  /    A nd           | Version:  9
     \\/     M anipulation  |
\*---------------------------------------------------------------------------*/
FoamFile
{
    format      ascii;
    class       volScalarField;
    location    "3000";
    object      gammaInt;
}
// * * * * * * * * * * * * * * * * * * * * * * * * * * * * * * * * * * * * * //

dimensions      [0 0 0 0 0 0 0];

internalField   nonuniform List<scalar> 
13538
(
0.99834
0.99794
0.99798
0.998057
0.998123
0.998176
0.998218
0.998252
0.99828
0.998305
0.998327
0.99834
0.99834
0.998326
0.998304
0.998278
0.998253
0.998229
0.998205
0.998179
0.998151
0.998123
0.998092
0.998062
0.998031
0.997999
0.997967
0.997935
0.997902
0.997869
0.997835
0.997801
0.997765
0.997729
0.997692
0.997654
0.997615
0.997576
0.997535
0.997493
0.997451
0.997408
0.997364
0.997319
0.997275
0.99723
0.997185
0.997141
0.997096
0.997053
0.997009
0.996967
0.996925
0.996883
0.996841
0.996797
0.996756
0.996711
0.996667
0.996621
0.996571
0.996518
0.996433
0.996325
0.996216
0.996105
0.995981
0.995838
0.995678
0.995507
0.995321
0.995121
0.994887
0.994634
0.994374
0.994105
0.993843
0.993536
0.993173
0.992786
0.992367
0.991959
0.991433
0.990944
0.99017
0.989482
0.988296
0.987519
0.985551
0.984827
0.981274
0.97932
0.965801
0.948972
0.875447
0.722473
0.441164
0.120337
0.0176742
0.998623
0.998114
0.998099
0.99815
0.9982
0.998243
0.998278
0.998306
0.99833
0.998352
0.998372
0.998383
0.998382
0.998367
0.998344
0.998319
0.998293
0.998268
0.998243
0.998217
0.998189
0.998159
0.998128
0.998096
0.998064
0.998031
0.997999
0.997966
0.997932
0.997899
0.997864
0.99783
0.997795
0.99776
0.997724
0.997687
0.99765
0.997613
0.997575
0.997536
0.997497
0.997458
0.997418
0.997377
0.997336
0.997294
0.997253
0.99721
0.997167
0.997124
0.997079
0.997034
0.996989
0.996941
0.996891
0.996838
0.996786
0.996729
0.996671
0.996609
0.996543
0.996471
0.996391
0.996313
0.996239
0.996162
0.996072
0.995966
0.995847
0.995718
0.995579
0.995429
0.99525
0.995054
0.994848
0.994641
0.99444
0.994197
0.993893
0.993557
0.993188
0.992817
0.992318
0.991858
0.991117
0.990408
0.989184
0.988356
0.986282
0.985503
0.981566
0.981004
0.966557
0.953896
0.890395
0.759836
0.476818
0.138225
0.0196279
0.998847
0.998289
0.998223
0.998245
0.998279
0.998311
0.998339
0.998361
0.998381
0.998401
0.998418
0.998428
0.998425
0.99841
0.998387
0.99836
0.998335
0.99831
0.998284
0.998257
0.998228
0.998197
0.998165
0.998133
0.9981
0.998067
0.998034
0.998
0.997966
0.997932
0.997897
0.997862
0.997827
0.997791
0.997754
0.997717
0.997679
0.997641
0.997601
0.997561
0.997521
0.997479
0.997437
0.997394
0.99735
0.997307
0.997262
0.997217
0.997172
0.997127
0.997081
0.997035
0.99699
0.996942
0.996894
0.996844
0.996795
0.996744
0.996692
0.996638
0.99658
0.996519
0.996449
0.99638
0.996307
0.996229
0.996143
0.99604
0.995923
0.995799
0.995667
0.995523
0.995353
0.995167
0.994972
0.994777
0.994591
0.994366
0.994082
0.993769
0.993425
0.993092
0.992612
0.992223
0.991511
0.99095
0.98965
0.989145
0.986779
0.986716
0.981819
0.982711
0.966622
0.956335
0.895983
0.782736
0.500904
0.150856
0.0210323
0.999029
0.998453
0.998344
0.998341
0.998359
0.998381
0.998401
0.998418
0.998434
0.998451
0.998466
0.998474
0.998471
0.998455
0.998431
0.998405
0.998379
0.998354
0.998328
0.998301
0.998271
0.99824
0.998207
0.998174
0.99814
0.998106
0.998072
0.998038
0.998003
0.997968
0.997933
0.997897
0.997861
0.997825
0.997788
0.997751
0.997713
0.997675
0.997635
0.997596
0.997555
0.997514
0.997473
0.99743
0.997387
0.997344
0.997301
0.997256
0.997211
0.997166
0.997121
0.997075
0.997029
0.996981
0.996933
0.996882
0.996832
0.996779
0.996726
0.99667
0.99661
0.996547
0.996476
0.996403
0.996332
0.996261
0.996182
0.996086
0.995975
0.995859
0.995733
0.995596
0.995435
0.995256
0.99507
0.99488
0.994704
0.994485
0.994208
0.993901
0.99356
0.993234
0.992765
0.992417
0.991732
0.991291
0.989947
0.989684
0.987087
0.987638
0.981894
0.984221
0.966859
0.95886
0.901275
0.803673
0.526366
0.164399
0.0225387
0.999176
0.998604
0.998461
0.998434
0.998438
0.998449
0.998462
0.998473
0.998486
0.9985
0.998513
0.998519
0.998514
0.998497
0.998473
0.998447
0.998421
0.998396
0.99837
0.998342
0.998312
0.998279
0.998246
0.998212
0.998178
0.998143
0.998108
0.998073
0.998038
0.998002
0.997966
0.99793
0.997894
0.997857
0.99782
0.997783
0.997744
0.997706
0.997666
0.997626
0.997586
0.997545
0.997503
0.99746
0.997417
0.997373
0.997329
0.997285
0.997239
0.997194
0.997148
0.997102
0.997055
0.997007
0.996958
0.996907
0.996857
0.996805
0.996753
0.996698
0.99664
0.996578
0.996509
0.99644
0.996372
0.996305
0.996229
0.996138
0.996032
0.99592
0.995801
0.995669
0.995513
0.99534
0.995161
0.994982
0.994819
0.994617
0.994357
0.994066
0.993744
0.993439
0.992996
0.992679
0.992023
0.991686
0.990322
0.990269
0.987459
0.988585
0.982043
0.985591
0.967167
0.960856
0.904768
0.819944
0.550421
0.17775
0.0239876
0.999296
0.998741
0.998573
0.998525
0.998515
0.998517
0.998522
0.998529
0.998537
0.998549
0.998559
0.998563
0.998557
0.998539
0.998515
0.998489
0.998463
0.998438
0.998412
0.998384
0.998353
0.99832
0.998286
0.998251
0.998216
0.998181
0.998145
0.998109
0.998073
0.998037
0.998001
0.997964
0.997928
0.99789
0.997853
0.997815
0.997777
0.997738
0.997699
0.997658
0.997618
0.997577
0.997535
0.997492
0.997449
0.997405
0.997361
0.997316
0.997271
0.997225
0.997179
0.997133
0.997086
0.997038
0.996988
0.996938
0.996887
0.996835
0.996783
0.996728
0.99667
0.996609
0.996541
0.996473
0.996407
0.996342
0.996268
0.996181
0.99608
0.995974
0.995858
0.995732
0.995581
0.995415
0.995241
0.99507
0.994913
0.994716
0.994468
0.994188
0.993883
0.993594
0.993177
0.992877
0.992265
0.991993
0.990661
0.990755
0.98782
0.989395
0.982256
0.98669
0.967627
0.962438
0.907825
0.832421
0.573111
0.191096
0.0254681
0.999395
0.998865
0.998679
0.998614
0.998591
0.998583
0.998582
0.998583
0.998588
0.998597
0.998605
0.998607
0.998598
0.99858
0.998555
0.99853
0.998505
0.99848
0.998453
0.998425
0.998393
0.99836
0.998325
0.99829
0.998254
0.998218
0.998182
0.998145
0.998109
0.998072
0.998035
0.997998
0.997961
0.997923
0.997886
0.997847
0.997809
0.99777
0.99773
0.99769
0.997649
0.997608
0.997566
0.997523
0.99748
0.997437
0.997392
0.997347
0.997302
0.997256
0.997209
0.997163
0.997116
0.997067
0.997018
0.996967
0.996916
0.996864
0.996812
0.996758
0.996701
0.99664
0.996573
0.996506
0.996442
0.996379
0.996308
0.996224
0.996128
0.996027
0.995917
0.995794
0.995649
0.99549
0.995321
0.995159
0.995007
0.994819
0.994582
0.994315
0.994026
0.993749
0.99336
0.993066
0.99251
0.992261
0.99102
0.991176
0.988228
0.990072
0.982594
0.987491
0.968292
0.963578
0.910533
0.841333
0.595422
0.204319
0.0269105
0.999477
0.998976
0.998778
0.998699
0.998665
0.998649
0.998641
0.998637
0.998638
0.998644
0.99865
0.998649
0.998639
0.998619
0.998595
0.99857
0.998546
0.998521
0.998494
0.998465
0.998433
0.9984
0.998365
0.998329
0.998292
0.998256
0.998219
0.998182
0.998144
0.998107
0.998069
0.998032
0.997994
0.997956
0.997918
0.99788
0.997841
0.997802
0.997762
0.997722
0.997681
0.997639
0.997598
0.997555
0.997511
0.997468
0.997424
0.997379
0.997333
0.997287
0.99724
0.997194
0.997146
0.997097
0.997048
0.996997
0.996946
0.996894
0.996842
0.996788
0.996731
0.996671
0.996605
0.99654
0.996477
0.996416
0.996347
0.996265
0.996171
0.996075
0.995971
0.995853
0.995713
0.995558
0.995397
0.995241
0.995097
0.994917
0.994689
0.994434
0.994159
0.993893
0.993533
0.993242
0.992736
0.992487
0.991384
0.991517
0.988692
0.990571
0.983093
0.987961
0.96918
0.964622
0.913354
0.847242
0.616289
0.217369
0.0284032
0.999544
0.999075
0.998871
0.99878
0.998736
0.998712
0.998698
0.99869
0.998688
0.998691
0.998694
0.998691
0.998679
0.998658
0.998634
0.998609
0.998586
0.998561
0.998534
0.998505
0.998473
0.998439
0.998403
0.998367
0.99833
0.998293
0.998256
0.998218
0.99818
0.998142
0.998104
0.998066
0.998028
0.997989
0.997951
0.997912
0.997873
0.997834
0.997794
0.997753
0.997712
0.997671
0.997629
0.997586
0.997543
0.997499
0.997455
0.99741
0.997364
0.997318
0.997271
0.997225
0.997177
0.997128
0.997078
0.997027
0.996976
0.996924
0.996873
0.996819
0.996762
0.996703
0.996637
0.996573
0.996513
0.996452
0.996386
0.996305
0.996215
0.996121
0.996022
0.99591
0.995774
0.995625
0.99547
0.995322
0.995184
0.995009
0.994792
0.994547
0.99429
0.994034
0.993697
0.993413
0.99295
0.992695
0.99174
0.991794
0.989208
0.990895
0.983762
0.98815
0.970314
0.965719
0.916384
0.850917
0.6362
0.230495
0.0297993
0.999601
0.999162
0.998956
0.998857
0.998805
0.998774
0.998754
0.998742
0.998737
0.998737
0.998737
0.998732
0.998717
0.998696
0.998672
0.998648
0.998625
0.998601
0.998574
0.998544
0.998512
0.998478
0.998442
0.998405
0.998368
0.99833
0.998292
0.998254
0.998216
0.998177
0.998138
0.9981
0.998061
0.998022
0.997983
0.997944
0.997905
0.997865
0.997825
0.997785
0.997744
0.997702
0.99766
0.997618
0.997575
0.997531
0.997487
0.997442
0.997396
0.99735
0.997303
0.997256
0.997208
0.997159
0.997109
0.997058
0.997007
0.996956
0.996904
0.99685
0.996794
0.996734
0.99667
0.996608
0.996548
0.996489
0.996425
0.996345
0.996256
0.996167
0.996071
0.995963
0.995832
0.99569
0.99554
0.995398
0.995267
0.995098
0.994891
0.994654
0.994415
0.994169
0.993854
0.993577
0.993155
0.99289
0.992062
0.99205
0.989747
0.991125
0.984581
0.988415
0.971669
0.966843
0.919704
0.854658
0.654748
0.24355
0.0312624
0.999649
0.999241
0.999036
0.99893
0.998871
0.998834
0.998809
0.998792
0.998784
0.998782
0.99878
0.998771
0.998755
0.998733
0.99871
0.998686
0.998664
0.99864
0.998613
0.998583
0.99855
0.998516
0.99848
0.998443
0.998406
0.998368
0.998329
0.99829
0.998251
0.998212
0.998173
0.998134
0.998095
0.998055
0.998016
0.997977
0.997937
0.997897
0.997857
0.997817
0.997776
0.997734
0.997692
0.997649
0.997606
0.997563
0.997518
0.997473
0.997428
0.997381
0.997335
0.997288
0.99724
0.997191
0.997141
0.99709
0.997039
0.996987
0.996936
0.996882
0.996827
0.996767
0.996703
0.996642
0.996584
0.996526
0.996463
0.996384
0.996298
0.99621
0.996119
0.996014
0.995887
0.995751
0.995607
0.995473
0.995347
0.995183
0.994986
0.994759
0.994535
0.994298
0.994004
0.993741
0.993346
0.993081
0.992351
0.992307
0.990257
0.991394
0.985498
0.988766
0.973235
0.968104
0.923309
0.858658
0.672713
0.256494
0.0327371
0.99969
0.99931
0.999108
0.998999
0.998934
0.998891
0.998862
0.998842
0.998831
0.998826
0.998821
0.99881
0.998792
0.998769
0.998746
0.998724
0.998702
0.998678
0.998651
0.998621
0.998588
0.998554
0.998518
0.998481
0.998443
0.998405
0.998366
0.998326
0.998287
0.998247
0.998208
0.998168
0.998128
0.998089
0.998049
0.998009
0.99797
0.997929
0.997889
0.997848
0.997807
0.997766
0.997723
0.997681
0.997638
0.997594
0.99755
0.997505
0.99746
0.997414
0.997367
0.99732
0.997272
0.997223
0.997173
0.997122
0.997072
0.99702
0.996969
0.996914
0.99686
0.9968
0.996737
0.996677
0.996621
0.996564
0.996501
0.996423
0.996339
0.996255
0.996165
0.996063
0.995941
0.99581
0.995674
0.995547
0.995423
0.995267
0.995075
0.994861
0.994651
0.994426
0.994147
0.993895
0.993532
0.993266
0.99262
0.99256
0.990725
0.991686
0.986387
0.98915
0.974966
0.969457
0.927142
0.863095
0.6897
0.269359
0.0341752
0.999724
0.999372
0.999175
0.999064
0.998994
0.998947
0.998913
0.998891
0.998878
0.99887
0.998861
0.998847
0.998827
0.998805
0.998782
0.998761
0.998739
0.998715
0.998688
0.998658
0.998625
0.998591
0.998555
0.998518
0.99848
0.998441
0.998402
0.998362
0.998322
0.998282
0.998242
0.998202
0.998162
0.998122
0.998082
0.998042
0.998002
0.997962
0.997921
0.99788
0.997839
0.997797
0.997755
0.997713
0.99767
0.997626
0.997582
0.997537
0.997492
0.997446
0.9974
0.997353
0.997305
0.997255
0.997206
0.997155
0.997105
0.997053
0.997002
0.996948
0.996893
0.996834
0.996772
0.996713
0.996658
0.996603
0.996539
0.996461
0.99638
0.996298
0.996212
0.996112
0.995994
0.995868
0.995738
0.995619
0.995499
0.995347
0.995163
0.99496
0.994762
0.994547
0.994286
0.994043
0.993709
0.993448
0.992869
0.992792
0.991163
0.991961
0.987195
0.989561
0.976731
0.970907
0.931188
0.86801
0.70559
0.282329
0.0356953
0.999754
0.999427
0.999237
0.999124
0.999051
0.998999
0.998963
0.998938
0.998922
0.998912
0.9989
0.998883
0.998862
0.99884
0.998818
0.998797
0.998776
0.998751
0.998724
0.998694
0.998662
0.998627
0.998592
0.998555
0.998517
0.998478
0.998438
0.998398
0.998358
0.998318
0.998277
0.998236
0.998196
0.998155
0.998115
0.998075
0.998034
0.997994
0.997953
0.997912
0.997871
0.997829
0.997787
0.997745
0.997702
0.997658
0.997614
0.99757
0.997524
0.997479
0.997433
0.997385
0.997338
0.997288
0.997239
0.997189
0.997139
0.997088
0.997036
0.996983
0.996928
0.996869
0.996808
0.99675
0.996695
0.996641
0.996577
0.9965
0.996421
0.996341
0.996258
0.996159
0.996046
0.995925
0.995802
0.995688
0.995572
0.995421
0.995247
0.995056
0.99487
0.994665
0.994422
0.99419
0.993874
0.993622
0.9931
0.99301
0.991574
0.992239
0.98794
0.989948
0.978375
0.972434
0.935418
0.873234
0.720661
0.295361
0.0371524
0.999779
0.999476
0.999294
0.999181
0.999104
0.999049
0.99901
0.998984
0.998966
0.998953
0.998938
0.998919
0.998897
0.998874
0.998853
0.998833
0.998811
0.998787
0.99876
0.99873
0.998697
0.998663
0.998628
0.998591
0.998553
0.998514
0.998474
0.998434
0.998393
0.998353
0.998312
0.998271
0.99823
0.998189
0.998148
0.998108
0.998067
0.998026
0.997985
0.997944
0.997903
0.997861
0.997819
0.997777
0.997734
0.997691
0.997647
0.997602
0.997557
0.997512
0.997466
0.997419
0.997371
0.997322
0.997273
0.997223
0.997173
0.997123
0.997071
0.997018
0.996963
0.996904
0.996844
0.996788
0.996735
0.996681
0.996615
0.996539
0.996462
0.996385
0.996304
0.996206
0.996097
0.995983
0.995865
0.995755
0.995641
0.995496
0.995329
0.995151
0.994979
0.994778
0.994552
0.994328
0.994042
0.99379
0.993318
0.993222
0.99196
0.992514
0.988631
0.990313
0.979865
0.973925
0.939585
0.878872
0.735104
0.308264
0.0386398
0.999801
0.99952
0.999345
0.999233
0.999154
0.999097
0.999057
0.999029
0.999009
0.998992
0.998974
0.998953
0.99893
0.998908
0.998888
0.998868
0.998846
0.998822
0.998794
0.998764
0.998733
0.998699
0.998664
0.998627
0.998589
0.99855
0.99851
0.99847
0.998429
0.998388
0.998346
0.998305
0.998264
0.998223
0.998182
0.998141
0.9981
0.998059
0.998017
0.997976
0.997935
0.997893
0.997851
0.997809
0.997766
0.997723
0.997679
0.997635
0.99759
0.997545
0.997499
0.997453
0.997405
0.997357
0.997308
0.997258
0.997209
0.997158
0.997107
0.997055
0.997
0.996941
0.996882
0.996827
0.996775
0.99672
0.996653
0.996579
0.996504
0.99643
0.996349
0.996254
0.996149
0.996039
0.995928
0.995822
0.995709
0.99557
0.995408
0.995241
0.995083
0.994889
0.994677
0.994464
0.994198
0.993958
0.993526
0.993421
0.992325
0.992786
0.989273
0.990669
0.98125
0.975317
0.943591
0.884792
0.748826
0.321191
0.0402364
0.99982
0.99956
0.999393
0.999281
0.999201
0.999143
0.999102
0.999073
0.99905
0.99903
0.999009
0.998986
0.998964
0.998942
0.998922
0.998902
0.99888
0.998856
0.998828
0.998799
0.998767
0.998734
0.998699
0.998662
0.998624
0.998585
0.998546
0.998505
0.998464
0.998423
0.998381
0.998339
0.998298
0.998257
0.998215
0.998174
0.998133
0.998091
0.99805
0.998008
0.997967
0.997925
0.997883
0.997841
0.997799
0.997756
0.997712
0.997668
0.997623
0.997579
0.997533
0.997487
0.99744
0.997392
0.997343
0.997294
0.997245
0.997195
0.997144
0.997092
0.997037
0.996979
0.996922
0.996867
0.996816
0.99676
0.996692
0.996618
0.996546
0.996474
0.996394
0.996301
0.996203
0.996097
0.99599
0.995887
0.995774
0.995639
0.995487
0.995335
0.995183
0.995001
0.994802
0.994597
0.994352
0.994117
0.993725
0.993613
0.99265
0.993056
0.989875
0.991014
0.982528
0.976612
0.947411
0.890665
0.761846
0.334617
0.0417332
0.999837
0.999595
0.999436
0.999324
0.999245
0.999187
0.999146
0.999115
0.99909
0.999067
0.999043
0.999019
0.998997
0.998976
0.998956
0.998936
0.998913
0.998888
0.998861
0.998832
0.998801
0.998768
0.998733
0.998697
0.998659
0.99862
0.998581
0.99854
0.998499
0.998458
0.998416
0.998374
0.998332
0.998291
0.998249
0.998207
0.998166
0.998124
0.998083
0.998041
0.997999
0.997958
0.997916
0.997874
0.997831
0.997788
0.997745
0.997701
0.997657
0.997613
0.997568
0.997521
0.997475
0.997427
0.997379
0.997331
0.997282
0.997232
0.997182
0.99713
0.997076
0.997018
0.996962
0.996908
0.996857
0.996799
0.996732
0.99666
0.99659
0.996519
0.996441
0.99635
0.996256
0.996156
0.996051
0.995949
0.995839
0.995707
0.995564
0.995426
0.995277
0.995107
0.994921
0.994725
0.994502
0.994273
0.99392
0.993796
0.992952
0.993317
0.990441
0.99135
0.983714
0.97788
0.950934
0.896515
0.774414
0.347618
0.0433845
0.999852
0.999627
0.999474
0.999365
0.999287
0.99923
0.999188
0.999156
0.999129
0.999103
0.999077
0.999052
0.99903
0.999009
0.998989
0.998969
0.998946
0.99892
0.998893
0.998864
0.998834
0.998801
0.998767
0.998731
0.998694
0.998655
0.998615
0.998575
0.998534
0.998492
0.99845
0.998408
0.998367
0.998325
0.998283
0.998241
0.998199
0.998157
0.998115
0.998074
0.998032
0.99799
0.997948
0.997906
0.997864
0.997821
0.997778
0.997735
0.997691
0.997647
0.997602
0.997556
0.99751
0.997463
0.997416
0.997368
0.99732
0.99727
0.997221
0.997169
0.997115
0.997058
0.997003
0.99695
0.996899
0.99684
0.996772
0.996701
0.996634
0.996564
0.996486
0.996401
0.996311
0.996215
0.996112
0.996011
0.9959
0.995774
0.995644
0.995513
0.995375
0.995213
0.995036
0.994854
0.994647
0.994425
0.994109
0.993976
0.993236
0.993571
0.990975
0.991679
0.984832
0.97906
0.954377
0.90209
0.786449
0.361153
0.0449629
0.999865
0.999656
0.999508
0.999403
0.999327
0.999271
0.999229
0.999195
0.999165
0.999137
0.999109
0.999085
0.999062
0.999042
0.999022
0.999
0.998977
0.998952
0.998925
0.998896
0.998866
0.998834
0.9988
0.998764
0.998727
0.998689
0.99865
0.998609
0.998568
0.998527
0.998485
0.998443
0.998401
0.998359
0.998317
0.998275
0.998233
0.99819
0.998148
0.998107
0.998065
0.998023
0.997981
0.997939
0.997897
0.997855
0.997812
0.997769
0.997725
0.997682
0.997637
0.997592
0.997546
0.9975
0.997453
0.997406
0.997358
0.997309
0.99726
0.997209
0.997155
0.997099
0.997045
0.996993
0.996941
0.996882
0.996814
0.996746
0.996681
0.996611
0.996536
0.996453
0.996367
0.996273
0.996171
0.996071
0.995962
0.995845
0.995722
0.995601
0.995468
0.995313
0.995146
0.994982
0.994781
0.994576
0.994293
0.99415
0.993504
0.993805
0.991486
0.992006
0.985874
0.980212
0.957631
0.907599
0.798136
0.374533
0.0467382
0.999876
0.999682
0.999542
0.99944
0.999365
0.999311
0.999269
0.999233
0.999201
0.99917
0.999142
0.999117
0.999095
0.999074
0.999053
0.999031
0.999007
0.998982
0.998955
0.998927
0.998897
0.998866
0.998832
0.998797
0.998761
0.998723
0.998684
0.998644
0.998603
0.998561
0.998519
0.998477
0.998436
0.998393
0.998351
0.998308
0.998266
0.998224
0.998182
0.99814
0.998098
0.998056
0.998015
0.997973
0.997931
0.997888
0.997846
0.997803
0.99776
0.997717
0.997672
0.997628
0.997583
0.997537
0.997491
0.997445
0.997398
0.997349
0.9973
0.99725
0.997197
0.997141
0.997088
0.997036
0.996984
0.996924
0.996857
0.996791
0.996727
0.996659
0.996585
0.996508
0.996426
0.996332
0.996229
0.996129
0.996025
0.995918
0.995803
0.995688
0.99556
0.995415
0.995255
0.995107
0.99492
0.99472
0.994472
0.994323
0.993757
0.994029
0.991967
0.992329
0.986857
0.981316
0.96078
0.912838
0.809864
0.388089
0.0485539
0.999705
0.999572
0.999473
0.999402
0.999349
0.999307
0.99927
0.999235
0.999202
0.999173
0.999148
0.999126
0.999105
0.999083
0.999061
0.999037
0.999012
0.998985
0.998958
0.998928
0.998897
0.998864
0.998829
0.998793
0.998756
0.998717
0.998677
0.998637
0.998595
0.998553
0.998512
0.99847
0.998427
0.998385
0.998342
0.9983
0.998257
0.998215
0.998173
0.998132
0.99809
0.998048
0.998006
0.997964
0.997922
0.99788
0.997838
0.997795
0.997752
0.997708
0.997665
0.99762
0.997575
0.99753
0.997484
0.997437
0.99739
0.997342
0.997292
0.997239
0.997185
0.997132
0.99708
0.997028
0.996967
0.996901
0.996838
0.996775
0.996708
0.99664
0.996566
0.996486
0.996389
0.996285
0.996187
0.996092
0.995992
0.995887
0.995772
0.99565
0.995512
0.995369
0.995223
0.995051
0.994867
0.994638
0.994498
0.993991
0.994241
0.992425
0.992645
0.987785
0.982408
0.963762
0.918126
0.821188
0.401939
0.050482
0.999599
0.999505
0.999437
0.999387
0.999344
0.999304
0.999267
0.999233
0.999204
0.99918
0.999157
0.999135
0.999113
0.99909
0.999066
0.999041
0.999015
0.998987
0.998958
0.998927
0.998895
0.998861
0.998825
0.998788
0.99875
0.998711
0.99867
0.998629
0.998588
0.998547
0.998504
0.998461
0.998419
0.998377
0.998334
0.998291
0.998249
0.998207
0.998165
0.998123
0.998082
0.99804
0.997998
0.997957
0.997915
0.997873
0.99783
0.997788
0.997745
0.997702
0.997658
0.997614
0.997569
0.997524
0.997477
0.997431
0.997384
0.997334
0.997282
0.997228
0.997176
0.997125
0.997072
0.997012
0.996947
0.996885
0.996825
0.996761
0.996695
0.996626
0.996546
0.996445
0.99634
0.996249
0.996164
0.996069
0.995971
0.995858
0.995741
0.99561
0.995474
0.995347
0.995181
0.995016
0.994803
0.994664
0.994221
0.994444
0.992868
0.992955
0.988676
0.983476
0.966675
0.92329
0.832467
0.415879
0.0525869
0.999423
0.99938
0.999337
0.999298
0.999263
0.999235
0.99921
0.999187
0.999164
0.999141
0.999118
0.999094
0.99907
0.999044
0.999017
0.998988
0.998958
0.998926
0.998892
0.998857
0.998821
0.998783
0.998744
0.998704
0.998663
0.998622
0.998582
0.998538
0.998495
0.998453
0.998411
0.998368
0.998325
0.998283
0.998241
0.998199
0.998157
0.998116
0.998074
0.998033
0.997991
0.997949
0.997908
0.997866
0.997824
0.997782
0.997739
0.997696
0.997652
0.997608
0.997564
0.997518
0.997473
0.997427
0.997378
0.997326
0.997272
0.99722
0.99717
0.997118
0.997057
0.996994
0.996935
0.996876
0.996817
0.996755
0.996689
0.996605
0.996497
0.996398
0.996318
0.996242
0.996155
0.996056
0.995945
0.995831
0.995708
0.995582
0.995462
0.995308
0.995159
0.994969
0.994841
0.994447
0.994634
0.993303
0.993269
0.989515
0.984496
0.969525
0.928378
0.843689
0.430445
0.0547977
0.999412
0.999368
0.999327
0.999293
0.999264
0.999239
0.999215
0.999192
0.999169
0.999146
0.999123
0.999098
0.999073
0.999046
0.999018
0.998988
0.998956
0.998924
0.998889
0.998853
0.998816
0.998778
0.998738
0.998698
0.998657
0.998617
0.998572
0.99853
0.998488
0.998445
0.998401
0.998359
0.998318
0.998276
0.998233
0.998192
0.99815
0.998109
0.998068
0.998026
0.997985
0.997943
0.997902
0.997861
0.997819
0.997777
0.997735
0.997692
0.997648
0.997604
0.99756
0.997516
0.99747
0.997422
0.997369
0.997316
0.997266
0.997217
0.997166
0.997104
0.997043
0.996986
0.996931
0.996875
0.996817
0.996752
0.996662
0.996546
0.99646
0.996397
0.996326
0.996242
0.996145
0.996037
0.995925
0.995811
0.995696
0.995579
0.99544
0.995304
0.995127
0.995006
0.994668
0.99482
0.993707
0.993577
0.990314
0.985488
0.972273
0.933411
0.855131
0.445236
0.0571759
0.999394
0.999354
0.999321
0.999293
0.999267
0.999244
0.999221
0.999198
0.999175
0.999151
0.999127
0.999102
0.999075
0.999048
0.999019
0.998988
0.998956
0.998922
0.998887
0.998851
0.998813
0.998774
0.998734
0.998694
0.998652
0.998607
0.998566
0.998523
0.998478
0.998435
0.998394
0.998352
0.99831
0.998268
0.998226
0.998185
0.998144
0.998103
0.998061
0.99802
0.997979
0.997939
0.997898
0.997857
0.997816
0.997773
0.997731
0.997689
0.997646
0.997602
0.99756
0.997515
0.997465
0.997413
0.99736
0.997312
0.997267
0.997215
0.997152
0.997093
0.997041
0.996992
0.99694
0.996883
0.996813
0.996715
0.996601
0.996539
0.99649
0.99642
0.996335
0.996239
0.996138
0.996032
0.995923
0.995815
0.995705
0.995575
0.995455
0.995305
0.995191
0.9949
0.995014
0.994081
0.993892
0.991085
0.986477
0.974938
0.938313
0.866559
0.460653
0.0596619
0.998684
0.998644
0.998603
0.998558
0.998512
0.99847
0.998429
0.998387
0.998344
0.998302
0.998261
0.99822
0.998179
0.998138
0.998097
0.998056
0.998016
0.997976
0.997936
0.997895
0.997854
0.997813
0.997771
0.99773
0.997687
0.997646
0.997604
0.997559
0.997509
0.997456
0.997406
0.99736
0.997318
0.997263
0.997199
0.997146
0.9971
0.997055
0.997005
0.99695
0.996873
0.996766
0.996671
0.996643
0.996597
0.996523
0.996436
0.996343
0.996245
0.996149
0.99605
0.995946
0.995844
0.995727
0.995619
0.995482
0.99538
0.995138
0.995222
0.994443
0.994225
0.991813
0.987461
0.977505
0.943182
0.878134
0.476719
0.0622986
0.998635
0.998593
0.998548
0.998507
0.998465
0.998421
0.998379
0.998337
0.998296
0.998255
0.998215
0.998173
0.998132
0.998092
0.998053
0.998014
0.997974
0.997934
0.997893
0.997852
0.997811
0.997771
0.99773
0.99769
0.997649
0.997602
0.99755
0.997499
0.997453
0.997412
0.997372
0.997311
0.99725
0.997207
0.997167
0.997123
0.997073
0.997018
0.996931
0.996833
0.998627
0.998586
0.998545
0.998501
0.998456
0.998414
0.998373
0.998332
0.998291
0.99825
0.998209
0.998169
0.99813
0.998091
0.998051
0.998012
0.997972
0.997932
0.997892
0.997852
0.997813
0.997773
0.997734
0.997693
0.997644
0.997592
0.997545
0.997503
0.997468
0.997424
0.997357
0.997308
0.997276
0.99724
0.997196
0.997145
0.997089
0.996995
0.998578
0.998536
0.998492
0.998452
0.998409
0.998368
0.998327
0.998286
0.998245
0.998206
0.998168
0.998129
0.998089
0.99805
0.998011
0.997971
0.997932
0.997894
0.997856
0.997817
0.99778
0.997737
0.997685
0.997636
0.997594
0.997558
0.997526
0.997476
0.99741
0.997384
0.997358
0.997321
0.997273
0.997222
0.997168
0.998571
0.99853
0.99849
0.998445
0.998405
0.998363
0.998322
0.998282
0.998244
0.998206
0.998166
0.998127
0.998089
0.99805
0.998011
0.997973
0.997936
0.997899
0.997861
0.997826
0.997777
0.997726
0.997685
0.99765
0.997619
0.997587
0.99753
0.998523
0.998484
0.998445
0.9984
0.998359
0.998321
0.998284
0.998243
0.998204
0.998166
0.998127
0.998089
0.998052
0.998016
0.997979
0.997943
0.997906
0.997872
0.997817
0.997776
0.997744
0.997715
0.997685
0.997652
0.998479
0.998439
0.998401
0.998363
0.998324
0.998281
0.998244
0.998205
0.998166
0.998129
0.998094
0.998058
0.998023
0.997987
0.997951
0.997917
0.998359
0.998322
0.998286
0.998245
0.998207
0.998172
0.998137
0.998102
0.998068
0.998033
0.997998
0.997965
0.998323
0.998286
0.998252
0.998218
0.998183
0.998149
0.998115
0.998081
0.998048
0.998016
0.936734
0.906888
0.876517
0.962906
0.954712
0.934523
0.903815
0.874699
0.857834
0.849049
0.832536
0.798643
0.751797
0.699208
0.643849
0.589033
0.541097
0.505537
0.485265
0.452138
0.270551
0.158554
0.982918
0.981368
0.979367
0.976805
0.973222
0.967762
0.962932
0.954104
0.932018
0.900457
0.872595
0.857247
0.844996
0.818663
0.773411
0.717028
0.656799
0.597449
0.544698
0.504392
0.479015
0.465832
0.467758
0.281523
0.15059
0.987563
0.986219
0.984866
0.983526
0.982225
0.98072
0.978776
0.97633
0.972842
0.967382
0.962944
0.953171
0.929112
0.897089
0.870136
0.85438
0.835431
0.796667
0.738736
0.671888
0.604675
0.543824
0.496063
0.465297
0.450775
0.447432
0.456003
0.282647
0.137544
0.992002
0.990961
0.989816
0.988574
0.987248
0.985855
0.984422
0.982967
0.981493
0.979983
0.978089
0.975752
0.972339
0.966868
0.962867
0.951912
0.925982
0.89372
0.866627
0.847744
0.818612
0.76513
0.693256
0.615798
0.543484
0.484475
0.444696
0.424876
0.421528
0.429047
0.447323
0.282808
0.125242
0.994224
0.993557
0.992734
0.991791
0.990742
0.989579
0.988312
0.986946
0.985495
0.983981
0.982407
0.980764
0.979169
0.977317
0.97509
0.971731
0.966216
0.962721
0.950305
0.922789
0.890283
0.86079
0.835138
0.792794
0.722706
0.635945
0.549065
0.474745
0.421271
0.392086
0.383894
0.391647
0.413692
0.439774
0.281272
0.115057
0.994925
0.994589
0.994073
0.993382
0.992541
0.991587
0.990524
0.989346
0.988055
0.986652
0.985144
0.983553
0.981864
0.980063
0.97827
0.976448
0.974318
0.970988
0.965405
0.96248
0.94834
0.919732
0.886456
0.850534
0.814374
0.756906
0.668457
0.566837
0.473169
0.401318
0.357245
0.340457
0.343263
0.362942
0.402263
0.433568
0.277275
0.106428
0.995082
0.995045
0.994841
0.994467
0.993919
0.993203
0.992349
0.991385
0.990313
0.989122
0.987807
0.986368
0.984807
0.983139
0.981338
0.979378
0.977337
0.975478
0.973428
0.970093
0.964409
0.962141
0.946054
0.917026
0.881347
0.833057
0.784359
0.710729
0.602327
0.487382
0.391787
0.328122
0.297423
0.293465
0.304503
0.340218
0.400694
0.428037
0.27122
0.0986504
0.993857
0.994373
0.994774
0.995011
0.995083
0.994995
0.994747
0.994337
0.99376
0.993025
0.99216
0.991188
0.990107
0.988904
0.987569
0.986096
0.984488
0.982744
0.980834
0.978715
0.976448
0.974388
0.972408
0.96902
0.963187
0.961702
0.943527
0.914886
0.873388
0.805048
0.748248
0.65475
0.525215
0.401535
0.311818
0.263657
0.249797
0.256679
0.271514
0.331932
0.41291
0.41914
0.262564
0.0914428
0.991696
0.992315
0.992928
0.993518
0.994064
0.994534
0.994873
0.99505
0.995067
0.994931
0.994643
0.9942
0.993599
0.992848
0.991974
0.990996
0.989911
0.988696
0.987342
0.98584
0.984185
0.982371
0.980354
0.978087
0.975613
0.97324
0.971239
0.96774
0.96173
0.96114
0.940866
0.913357
0.860278
0.768334
0.709315
0.58937
0.440152
0.317205
0.244943
0.220712
0.225373
0.239182
0.258097
0.34761
0.440775
0.40125
0.250497
0.0845759
0.990243
0.990801
0.991387
0.991989
0.992592
0.993184
0.993747
0.994256
0.994677
0.994953
0.995069
0.995034
0.994854
0.994529
0.994057
0.993435
0.992671
0.991791
0.990811
0.989722
0.988498
0.987129
0.9856
0.983902
0.982024
0.97991
0.977499
0.974821
0.972149
0.969906
0.96624
0.959998
0.96048
0.938211
0.912261
0.838905
0.729258
0.666222
0.515229
0.354343
0.248045
0.206838
0.211906
0.234116
0.257304
0.310395
0.486409
0.534487
0.389117
0.235406
0.0779099
0.989564
0.990035
0.990553
0.991108
0.991688
0.992278
0.992864
0.993433
0.993965
0.994434
0.994799
0.995011
0.99507
0.994986
0.994764
0.994406
0.99391
0.99327
0.992496
0.991613
0.990633
0.98954
0.988312
0.986929
0.985378
0.983643
0.981707
0.979502
0.976957
0.974089
0.971163
0.968495
0.964493
0.957966
0.959763
0.935745
0.911045
0.806316
0.691711
0.616301
0.436042
0.280423
0.211893
0.207293
0.238021
0.274719
0.313095
0.463005
0.779751
0.712768
0.389171
0.218087
0.0713902
0.992734
0.99627
0.997225
0.997726
0.997806
0.997725
0.997623
0.997522
0.997426
0.997332
0.997235
0.99713
0.99701
0.996867
0.996697
0.9965
0.996277
0.996029
0.995755
0.995455
0.995132
0.994786
0.994418
0.994031
0.993627
0.993207
0.992776
0.992336
0.991892
0.991448
0.991008
0.99058
0.990169
0.989782
0.989427
0.989112
0.988843
0.98863
0.988478
0.988394
0.988383
0.988447
0.988587
0.988803
0.989091
0.989449
0.989871
0.990346
0.990864
0.991416
0.991987