/*--------------------------------*- C++ -*----------------------------------*\
  =========                 |
  \\      /  F ield         | OpenFOAM: The Open Source CFD Toolbox
   \\    /   O peration     | Website:  https://openfoam.org
    \\  /    A nd           | Version:  9
     \\/     M anipulation  |
\*---------------------------------------------------------------------------*/
FoamFile
{
    format      ascii;
    class       volScalarField;
    location    "3000";
    object      k;
}
// * * * * * * * * * * * * * * * * * * * * * * * * * * * * * * * * * * * * * //

dimensions      [0 2 -2 0 0 0 0];

internalField   nonuniform List<scalar> 
13538
(
8.93336e-06
1.81584e-07
2.34948e-08
5.06579e-09
5.00963e-09
1.95521e-07
4.98884e-07
7.25603e-07
8.36899e-07
8.86396e-07
9.24939e-07
9.72184e-07
1.02802e-06
1.08849e-06
1.15194e-06
1.21861e-06
1.28901e-06
1.36347e-06
1.44224e-06
1.52556e-06
1.61368e-06
1.7069e-06
1.80552e-06
1.90986e-06
2.02026e-06
2.13707e-06
2.26066e-06
2.39141e-06
2.52975e-06
2.67616e-06
2.83109e-06
2.99502e-06
3.16849e-06
3.35205e-06
3.54628e-06
3.75185e-06
3.96933e-06
4.19948e-06
4.44298e-06
4.70061e-06
4.9732e-06
5.26157e-06
5.56659e-06
5.88925e-06
6.2305e-06
6.59132e-06
6.97284e-06
7.37632e-06
7.80292e-06
8.2537e-06
8.73011e-06
9.23339e-06
9.76513e-06
1.03266e-05
1.09194e-05
1.15451e-05
1.22055e-05
1.29023e-05
1.36376e-05
1.44125e-05
1.5229e-05
1.60891e-05
1.69944e-05
1.7947e-05
1.8949e-05
2.00026e-05
2.11109e-05
2.22762e-05
2.34999e-05
2.47834e-05
2.61293e-05
2.75411e-05
2.90236e-05
3.05769e-05
3.22012e-05
3.38987e-05
3.5671e-05
3.75144e-05
3.94259e-05
4.14077e-05
4.34572e-05
4.55745e-05
4.77644e-05
5.00207e-05
5.23492e-05
5.47821e-05
5.73956e-05
6.02653e-05
6.34096e-05
6.6788e-05
7.03571e-05
7.40981e-05
7.812e-05
8.24183e-05
8.75524e-05
9.75269e-05
0.00012603
0.000175886
0.000150662
1.16029e-05
5.16741e-07
6.11971e-08
7.95654e-09
1.67339e-08
1.71283e-07
4.61372e-07
7.07521e-07
8.42193e-07
9.03331e-07
9.43666e-07
9.89628e-07
1.04495e-06
1.10603e-06
1.17048e-06
1.23809e-06
1.30937e-06
1.38471e-06
1.46439e-06
1.54864e-06
1.63773e-06
1.73193e-06
1.83155e-06
1.9369e-06
2.04831e-06
2.16614e-06
2.29076e-06
2.42256e-06
2.56197e-06
2.7094e-06
2.86532e-06
3.03022e-06
3.20464e-06
3.38909e-06
3.58416e-06
3.79042e-06
4.00855e-06
4.23921e-06
4.48315e-06
4.74111e-06
5.01385e-06
5.30219e-06
5.60699e-06
5.92915e-06
6.26966e-06
6.62948e-06
7.00971e-06
7.41145e-06
7.83579e-06
8.28401e-06
8.75733e-06
9.25702e-06
9.78446e-06
1.03411e-05
1.09283e-05
1.15477e-05
1.22008e-05
1.2889e-05
1.36141e-05
1.43777e-05
1.51816e-05
1.60277e-05
1.69179e-05
1.78535e-05
1.8837e-05
1.98705e-05
2.09568e-05
2.20975e-05
2.32944e-05
2.45491e-05
2.58646e-05
2.72432e-05
2.86896e-05
3.02057e-05
3.17904e-05
3.34463e-05
3.51746e-05
3.69748e-05
3.88409e-05
4.07752e-05
4.27795e-05
4.48512e-05
4.69976e-05
4.92159e-05
5.15062e-05
5.38899e-05
5.64285e-05
5.92117e-05
6.22868e-05
6.56242e-05
6.91848e-05
7.293e-05
7.69726e-05
8.13349e-05
8.6374e-05
9.48463e-05
0.000119824
0.000171436
0.00015795
1.38299e-05
5.7422e-07
3.81324e-10
2.08073e-09
1.01971e-08
1.0373e-07
3.69097e-07
6.42176e-07
8.12449e-07
8.91777e-07
9.34352e-07
9.76754e-07
1.02907e-06
1.08877e-06
1.15247e-06
1.21925e-06
1.28949e-06
1.36369e-06
1.44216e-06
1.52514e-06
1.61288e-06
1.70566e-06
1.80378e-06
1.90755e-06
2.01729e-06
2.13336e-06
2.25612e-06
2.38595e-06
2.52327e-06
2.66851e-06
2.82212e-06
2.9846e-06
3.15645e-06
3.3382e-06
3.53041e-06
3.73367e-06
3.9486e-06
4.1759e-06
4.41628e-06
4.67051e-06
4.93935e-06
5.22361e-06
5.52416e-06
5.84186e-06
6.17768e-06
6.53259e-06
6.90765e-06
7.30394e-06
7.72262e-06
8.16486e-06
8.63197e-06
9.1252e-06
9.64592e-06
1.01955e-05
1.07753e-05
1.1387e-05
1.20321e-05
1.27123e-05
1.3429e-05
1.4184e-05
1.49792e-05
1.58162e-05
1.6697e-05
1.76232e-05
1.85968e-05
1.96197e-05
2.06936e-05
2.18204e-05
2.30026e-05
2.42415e-05
2.55402e-05
2.69018e-05
2.83296e-05
2.98254e-05
3.1389e-05
3.30222e-05
3.47287e-05
3.65062e-05
3.83493e-05
4.02593e-05
4.22393e-05
4.42911e-05
4.64182e-05
4.86205e-05
5.08983e-05
5.32658e-05
5.57713e-05
5.85039e-05
6.15316e-05
6.48497e-05
6.84198e-05
7.21956e-05
7.62784e-05
8.07095e-05
8.581e-05
9.36395e-05
0.000116193
0.000167823
0.000163302
1.57361e-05
9.90334e-07
1.54787e-08
2.2195e-09
5.33647e-09
6.45769e-08
2.91226e-07
5.74612e-07
7.78463e-07
8.81648e-07
9.31248e-07
9.71649e-07
1.0208e-06
1.07889e-06
1.14206e-06
1.20844e-06
1.27811e-06
1.3516e-06
1.42931e-06
1.51148e-06
1.59836e-06
1.69023e-06
1.78738e-06
1.89011e-06
1.99874e-06
2.11363e-06
2.23513e-06
2.36362e-06
2.49951e-06
2.64323e-06
2.79522e-06
2.95597e-06
3.12598e-06
3.30578e-06
3.4959e-06
3.69691e-06
3.90942e-06
4.13412e-06
4.37173e-06
4.623e-06
4.88872e-06
5.16969e-06
5.46677e-06
5.78075e-06
6.11264e-06
6.46335e-06
6.83395e-06
7.22553e-06
7.63917e-06
8.07605e-06
8.53747e-06
9.02462e-06
9.53892e-06
1.00817e-05
1.06544e-05
1.12585e-05
1.18955e-05
1.25671e-05
1.32749e-05
1.40205e-05
1.48055e-05
1.5632e-05
1.65017e-05
1.74163e-05
1.83777e-05
1.93879e-05
2.0449e-05
2.15628e-05
2.27313e-05
2.39568e-05
2.52413e-05
2.6587e-05
2.79964e-05
2.947e-05
3.10099e-05
3.26194e-05
3.43004e-05
3.60505e-05
3.78652e-05
3.97456e-05
4.1697e-05
4.37212e-05
4.58217e-05
4.80008e-05
5.02592e-05
5.26029e-05
5.507e-05
5.77461e-05
6.07155e-05
6.39973e-05
6.7561e-05
7.1358e-05
7.54786e-05
7.99785e-05
8.51521e-05
9.24743e-05
0.000112672
0.000163883
0.00016851
1.74212e-05
1.29402e-06
1.89907e-08
3.22009e-10
3.98902e-09
3.41439e-08
2.17652e-07
4.98472e-07
7.32354e-07
8.63773e-07
9.25197e-07
9.65482e-07
1.01118e-06
1.06693e-06
1.12915e-06
1.19503e-06
1.26405e-06
1.33672e-06
1.41351e-06
1.49472e-06
1.5806e-06
1.67139e-06
1.76739e-06
1.8689e-06
1.97624e-06
2.08975e-06
2.20979e-06
2.33673e-06
2.47098e-06
2.61296e-06
2.76309e-06
2.92187e-06
3.08979e-06
3.26736e-06
3.45513e-06
3.65362e-06
3.86346e-06
4.08528e-06
4.31981e-06
4.56781e-06
4.83005e-06
5.10736e-06
5.40056e-06
5.71052e-06
6.03812e-06
6.38432e-06
6.75015e-06
7.13664e-06
7.5449e-06
7.97614e-06
8.43154e-06
8.91237e-06
9.41991e-06
9.95566e-06
1.05209e-05
1.11171e-05
1.17459e-05
1.24087e-05
1.31073e-05
1.38433e-05
1.46185e-05
1.54344e-05
1.62929e-05
1.71959e-05
1.81453e-05
1.91431e-05
2.01913e-05
2.12911e-05
2.24453e-05
2.36562e-05
2.49259e-05
2.62566e-05
2.76503e-05
2.91083e-05
3.06329e-05
3.22271e-05
3.38899e-05
3.56166e-05
3.74056e-05
3.92596e-05
4.11831e-05
4.31795e-05
4.52538e-05
4.74101e-05
4.96476e-05
5.19689e-05
5.44039e-05
5.70319e-05
5.99421e-05
6.31786e-05
6.67265e-05
7.05386e-05
7.46986e-05
7.92634e-05
8.45386e-05
9.15725e-05
0.000109745
0.00015994
0.000173207
1.89337e-05
1.69478e-06
2.1626e-08
2.23428e-09
7.63271e-10
1.41438e-08
1.54097e-07
4.19175e-07
6.75926e-07
8.38139e-07
9.16684e-07
9.59893e-07
1.00253e-06
1.05533e-06
1.11617e-06
1.18144e-06
1.24988e-06
1.32177e-06
1.39764e-06
1.47788e-06
1.56273e-06
1.65243e-06
1.74728e-06
1.84756e-06
1.95359e-06
2.06571e-06
2.18428e-06
2.30966e-06
2.44224e-06
2.58244e-06
2.7307e-06
2.88749e-06
3.05329e-06
3.22861e-06
3.41398e-06
3.60993e-06
3.81708e-06
4.03604e-06
4.26746e-06
4.51212e-06
4.77082e-06
5.04438e-06
5.33364e-06
5.63941e-06
5.96264e-06
6.30421e-06
6.66516e-06
7.04651e-06
7.44929e-06
7.87471e-06
8.32397e-06
8.79834e-06
9.29904e-06
9.82749e-06
1.03851e-05
1.09732e-05
1.15935e-05
1.22474e-05
1.29367e-05
1.36628e-05
1.44275e-05
1.52326e-05
1.60798e-05
1.69707e-05
1.79077e-05
1.88923e-05
1.99269e-05
2.10131e-05
2.21528e-05
2.3349e-05
2.46033e-05
2.59182e-05
2.72955e-05
2.87363e-05
3.02428e-05
3.18192e-05
3.34642e-05
3.51748e-05
3.69467e-05
3.87818e-05
4.06833e-05
4.26552e-05
4.47057e-05
4.68364e-05
4.90497e-05
5.13493e-05
5.37546e-05
5.63332e-05
5.91836e-05
6.23687e-05
6.58897e-05
6.97148e-05
7.39016e-05
7.8528e-05
8.39076e-05
9.08158e-05
0.000107309
0.000156028
0.000177768
2.03057e-05
2.26588e-07
4.60417e-08
2.44899e-09
9.3575e-10
3.25121e-09
1.01974e-07
3.40003e-07
6.09938e-07
8.0299e-07
9.03647e-07
9.53706e-07
9.94421e-07
1.0438e-06
1.10266e-06
1.16711e-06
1.23496e-06
1.30608e-06
1.38102e-06
1.46024e-06
1.54401e-06
1.63258e-06
1.72622e-06
1.82522e-06
1.9299e-06
2.04057e-06
2.1576e-06
2.28135e-06
2.4122e-06
2.55057e-06
2.69687e-06
2.85158e-06
3.01519e-06
3.18816e-06
3.37104e-06
3.56437e-06
3.76876e-06
3.98476e-06
4.21304e-06
4.45432e-06
4.7094e-06
4.97907e-06
5.26419e-06
5.56563e-06
5.88429e-06
6.22108e-06
6.57698e-06
6.95298e-06
7.35013e-06
7.76958e-06
8.21256e-06
8.68023e-06
9.17387e-06
9.69484e-06
1.02446e-05
1.08245e-05
1.14361e-05
1.20809e-05
1.27605e-05
1.34764e-05
1.42305e-05
1.50244e-05
1.586e-05
1.67389e-05
1.7663e-05
1.86344e-05
1.96552e-05
2.07267e-05
2.18522e-05
2.30334e-05
2.42727e-05
2.55711e-05
2.69314e-05
2.83542e-05
2.98427e-05
3.14006e-05
3.30275e-05
3.47184e-05
3.64703e-05
3.82868e-05
4.01725e-05
4.21311e-05
4.41661e-05
4.62764e-05
4.84667e-05
5.0744e-05
5.31204e-05
5.56585e-05
5.84497e-05
6.15764e-05
6.50632e-05
6.88844e-05
7.30958e-05
7.77826e-05
8.32659e-05
9.01539e-05
0.000105226
0.00015225
0.000182009
2.15639e-05
1.20457e-06
1.13881e-07
1.07788e-08
2.34565e-10
6.02278e-09
6.26554e-08
2.64785e-07
5.36535e-07
7.57698e-07
8.845e-07
9.45997e-07
9.86804e-07
1.03268e-06
1.08892e-06
1.15219e-06
1.2194e-06
1.28978e-06
1.36379e-06
1.44195e-06
1.52461e-06
1.612e-06
1.7044e-06
1.80207e-06
1.90534e-06
2.01452e-06
2.12997e-06
2.25203e-06
2.38109e-06
2.51756e-06
2.66185e-06
2.81442e-06
2.97574e-06
3.14631e-06
3.32662e-06
3.51725e-06
3.71878e-06
3.93179e-06
4.15688e-06
4.39475e-06
4.64614e-06
4.91188e-06
5.19278e-06
5.48974e-06
5.80367e-06
6.13547e-06
6.48613e-06
6.85662e-06
7.24801e-06
7.66133e-06
8.09779e-06
8.5586e-06
9.04505e-06
9.55848e-06
1.01002e-05
1.06716e-05
1.12742e-05
1.19096e-05
1.25793e-05
1.32849e-05
1.40281e-05
1.48106e-05
1.56343e-05
1.65005e-05
1.74117e-05
1.83695e-05
1.93761e-05
2.04333e-05
2.15435e-05
2.27093e-05
2.39328e-05
2.52149e-05
2.6557e-05
2.79615e-05
2.94315e-05
3.0971e-05
3.2578e-05
3.42487e-05
3.59809e-05
3.77773e-05
3.96448e-05
4.15861e-05
4.36065e-05
4.5706e-05
4.78856e-05
5.01459e-05
5.24985e-05
5.49984e-05
5.77329e-05
6.08001e-05
6.42377e-05
6.80531e-05
7.22804e-05
7.7018e-05
8.25998e-05
8.95505e-05
0.000103561
0.000148707
0.000186177
2.27283e-05
1.83696e-06
3.00414e-09
2.6981e-09
6.37656e-10
8.37229e-10
3.51244e-08
1.96894e-07
4.58642e-07
7.02309e-07
8.57688e-07
9.35439e-07
9.7925e-07
1.02209e-06
1.07511e-06
1.1367e-06
1.20313e-06
1.2728e-06
1.34589e-06
1.42297e-06
1.50447e-06
1.59064e-06
1.68175e-06
1.77805e-06
1.87987e-06
1.98751e-06
2.10131e-06
2.22163e-06
2.34885e-06
2.48335e-06
2.62556e-06
2.77593e-06
2.93491e-06
3.10297e-06
3.28064e-06
3.46847e-06
3.66707e-06
3.87699e-06
4.09883e-06
4.33323e-06
4.58094e-06
4.84271e-06
5.11933e-06
5.41173e-06
5.7208e-06
6.04746e-06
6.39271e-06
6.75748e-06
7.14287e-06
7.54988e-06
7.97974e-06
8.43354e-06
8.91256e-06
9.41814e-06
9.95165e-06
1.05144e-05
1.11079e-05
1.17336e-05
1.23931e-05
1.30881e-05
1.38203e-05
1.4591e-05
1.54022e-05
1.62557e-05
1.71537e-05
1.80979e-05
1.90901e-05
2.01323e-05
2.12271e-05
2.23775e-05
2.35847e-05
2.48494e-05
2.61735e-05
2.75586e-05
2.9009e-05
3.05285e-05
3.21156e-05
3.37652e-05
3.54758e-05
3.72519e-05
3.91e-05
4.10248e-05
4.30294e-05
4.51137e-05
4.72802e-05
4.95324e-05
5.18768e-05
5.43503e-05
5.70325e-05
6.00342e-05
6.34181e-05
6.72152e-05
7.14486e-05
7.62373e-05
8.1907e-05
8.89685e-05
0.00010222
0.000145453
0.000189831
2.3809e-05
2.28136e-06
5.83959e-09
1.70385e-09
3.96356e-10
1.3383e-09
1.67141e-08
1.38705e-07
3.79729e-07
6.37812e-07
8.22031e-07
9.20565e-07
9.71075e-07
1.01206e-06
1.06148e-06
1.12078e-06
1.18616e-06
1.25512e-06
1.32732e-06
1.40331e-06
1.4836e-06
1.56851e-06
1.65828e-06
1.75318e-06
1.85349e-06
1.95954e-06
2.07165e-06
2.19018e-06
2.31549e-06
2.44797e-06
2.58804e-06
2.73613e-06
2.8927e-06
3.0582e-06
3.23315e-06
3.41811e-06
3.61367e-06
3.8204e-06
4.03888e-06
4.26978e-06
4.51374e-06
4.77149e-06
5.04382e-06
5.33157e-06
5.6357e-06
5.95711e-06
6.2968e-06
6.65574e-06
7.03491e-06
7.43543e-06
7.85845e-06
8.30508e-06
8.77651e-06
9.27407e-06
9.79909e-06
1.0353e-05
1.0937e-05
1.15529e-05
1.22021e-05
1.28862e-05
1.36068e-05
1.43656e-05
1.51643e-05
1.60049e-05
1.68896e-05
1.78196e-05
1.8797e-05
1.98242e-05
2.09034e-05
2.20372e-05
2.32274e-05
2.44742e-05
2.57792e-05
2.71445e-05
2.85746e-05
3.00739e-05
3.16398e-05
3.32675e-05
3.49564e-05
3.67118e-05
3.85401e-05
4.04466e-05
4.24334e-05
4.4501e-05
4.66519e-05
4.88927e-05
5.12261e-05
5.36879e-05
5.63386e-05
5.92833e-05
6.2605e-05
6.63684e-05
7.05996e-05
7.54298e-05
8.11784e-05
8.83725e-05
0.000101192
0.000142634
0.000193376
2.48221e-05
3.42737e-07
3.03982e-08
1.30304e-09
3.18091e-10
4.55748e-10
5.38432e-09
9.14861e-08
3.03354e-07
5.66063e-07
7.76888e-07
8.99857e-07
9.61312e-07
1.00243e-06
1.04824e-06
1.10462e-06
1.16856e-06
1.23671e-06
1.30805e-06
1.38297e-06
1.46203e-06
1.54563e-06
1.63403e-06
1.72747e-06
1.82623e-06
1.93064e-06
2.04101e-06
2.1577e-06
2.28105e-06
2.41146e-06
2.54932e-06
2.69508e-06
2.84917e-06
3.01204e-06
3.18419e-06
3.3662e-06
3.55865e-06
3.76209e-06
3.97711e-06
4.20435e-06
4.4445e-06
4.69818e-06
4.96618e-06
5.2493e-06
5.54844e-06
5.86452e-06
6.19855e-06
6.55143e-06
6.9243e-06
7.31817e-06
7.73415e-06
8.17338e-06
8.63701e-06
9.12629e-06
9.64265e-06
1.01874e-05
1.07619e-05
1.13678e-05
1.20063e-05
1.26793e-05
1.33881e-05
1.41347e-05
1.49206e-05
1.5748e-05
1.66188e-05
1.7535e-05
1.84972e-05
1.95085e-05
2.05716e-05
2.16889e-05
2.28614e-05
2.40892e-05
2.53741e-05
2.6719e-05
2.81289e-05
2.9607e-05
3.11506e-05
3.27563e-05
3.44221e-05
3.61561e-05
3.79641e-05
3.9851e-05
4.18181e-05
4.38673e-05
4.60024e-05
4.82273e-05
5.05517e-05
5.29987e-05
5.56205e-05
5.85229e-05
6.17892e-05
6.55152e-05
6.97313e-05
7.45922e-05
8.0417e-05
8.77613e-05
0.000100362
0.000140349
0.000196721
2.57663e-05
9.28231e-07
9.15421e-08
2.47825e-09
2.89403e-10
1.36877e-10
7.0542e-10
5.57227e-08
2.32618e-07
4.89538e-07
7.22281e-07
8.71919e-07
9.48749e-07
9.92806e-07
1.03554e-06
1.08846e-06
1.15042e-06
1.2176e-06
1.2881e-06
1.36196e-06
1.43978e-06
1.52203e-06
1.60901e-06
1.70095e-06
1.79814e-06
1.90086e-06
2.00945e-06
2.12424e-06
2.24558e-06
2.37386e-06
2.50947e-06
2.65283e-06
2.80437e-06
2.96454e-06
3.13385e-06
3.31284e-06
3.50208e-06
3.70213e-06
3.91358e-06
4.13707e-06
4.37325e-06
4.62278e-06
4.88634e-06
5.16477e-06
5.45895e-06
5.7697e-06
6.09799e-06
6.44477e-06
6.81116e-06
7.19815e-06
7.60699e-06
8.03863e-06
8.4943e-06
8.97522e-06
9.48259e-06
1.00179e-05
1.05826e-05
1.11781e-05
1.18058e-05
1.24675e-05
1.31644e-05
1.38983e-05
1.46711e-05
1.5485e-05
1.63422e-05
1.7244e-05
1.81911e-05
1.91862e-05
2.02323e-05
2.13321e-05
2.24863e-05
2.36946e-05
2.49592e-05
2.62828e-05
2.76712e-05
2.91273e-05
3.0649e-05
3.22308e-05
3.38742e-05
3.55857e-05
3.73721e-05
3.92378e-05
4.11848e-05
4.32132e-05
4.53285e-05
4.75394e-05
4.985e-05
5.22836e-05
5.4881e-05
5.7741e-05
6.09582e-05
6.46468e-05
6.88409e-05
7.3725e-05
7.96101e-05
8.71053e-05
9.96935e-05
0.000138676
0.000200017
2.66564e-05
1.44448e-06
1.39121e-07
3.21117e-09
2.96961e-10
1.45457e-10
7.80651e-10
3.09265e-08
1.70142e-07
4.11148e-07
6.589e-07
8.3561e-07
9.32009e-07
9.82531e-07
1.02342e-06
1.07256e-06
1.13194e-06
1.19783e-06
1.26747e-06
1.34031e-06
1.41688e-06
1.49775e-06
1.58327e-06
1.67368e-06
1.76924e-06
1.87024e-06
1.977e-06
2.08985e-06
2.20913e-06
2.33523e-06
2.46853e-06
2.60944e-06
2.75838e-06
2.91579e-06
3.08217e-06
3.25808e-06
3.44404e-06
3.6406e-06
3.84836e-06
4.06799e-06
4.30009e-06
4.5453e-06
4.80436e-06
5.07804e-06
5.36716e-06
5.6725e-06
5.99504e-06
6.33568e-06
6.69552e-06
7.07558e-06
7.47704e-06
7.901e-06
8.34847e-06
8.82075e-06
9.31908e-06
9.84488e-06
1.03994e-05
1.09843e-05
1.16009e-05
1.22509e-05
1.29356e-05
1.36566e-05
1.44163e-05
1.52168e-05
1.60598e-05
1.69465e-05
1.78778e-05
1.88564e-05
1.98851e-05
2.09666e-05
2.21016e-05
2.32898e-05
2.45335e-05
2.58356e-05
2.72023e-05
2.86364e-05
3.01346e-05
3.16924e-05
3.33117e-05
3.50005e-05
3.67653e-05
3.8609e-05
4.05335e-05
4.25396e-05
4.46333e-05
4.68239e-05
4.91207e-05
5.15405e-05
5.41157e-05
5.69376e-05
6.01013e-05
6.37482e-05
6.79222e-05
7.28251e-05
7.87562e-05
8.63923e-05
9.91276e-05
0.000137611
0.000203946
2.74935e-05
2.04248e-06
2.01986e-07
2.49126e-09
4.08421e-11
1.22761e-10
1.43871e-09
1.47997e-08
1.17657e-07
3.33968e-07
5.88102e-07
7.90162e-07
9.0963e-07
9.70686e-07
1.01173e-06
1.05714e-06
1.11332e-06
1.17749e-06
1.24615e-06
1.31802e-06
1.39337e-06
1.47283e-06
1.55685e-06
1.64568e-06
1.73958e-06
1.83881e-06
1.9437e-06
2.05457e-06
2.17175e-06
2.29562e-06
2.42655e-06
2.56496e-06
2.71124e-06
2.86583e-06
3.02923e-06
3.20199e-06
3.38459e-06
3.5776e-06
3.78161e-06
3.99725e-06
4.22514e-06
4.46591e-06
4.72029e-06
4.98907e-06
5.27304e-06
5.57294e-06
5.88965e-06
6.2241e-06
6.57734e-06
6.95042e-06
7.34444e-06
7.7605e-06
8.19966e-06
8.66326e-06
9.15229e-06
9.66827e-06
1.02125e-05
1.07865e-05
1.13919e-05
1.20301e-05
1.27022e-05
1.34103e-05
1.41562e-05
1.49427e-05
1.57717e-05
1.66433e-05
1.75582e-05
1.85193e-05
1.95303e-05
2.05931e-05
2.1708e-05
2.28756e-05
2.40974e-05
2.53778e-05
2.67227e-05
2.81338e-05
2.96081e-05
3.11417e-05
3.27357e-05
3.44012e-05
3.61426e-05
3.7962e-05
3.98621e-05
4.1845e-05
4.39172e-05
4.60869e-05
4.8366e-05
5.07702e-05
5.33233e-05
5.61093e-05
5.92192e-05
6.28166e-05
6.69595e-05
7.18792e-05
7.78496e-05
8.5626e-05
9.85934e-05
0.000137124
0.000208736
2.82876e-05
1.82259e-07
1.85772e-08
8.93624e-09
6.16337e-10
6.53518e-11
4.87684e-10
4.74361e-09
7.58389e-08
2.61062e-07
5.11904e-07
7.35317e-07
8.8017e-07
9.56081e-07
1.00007e-06
1.04236e-06
1.09481e-06
1.15671e-06
1.22418e-06
1.29507e-06
1.36924e-06
1.4473e-06
1.52977e-06
1.61699e-06
1.70918e-06
1.80662e-06
1.90959e-06
2.01843e-06
2.13347e-06
2.25506e-06
2.38358e-06
2.51943e-06
2.66299e-06
2.8147e-06
2.97507e-06
3.1446e-06
3.3238e-06
3.51317e-06
3.71335e-06
3.92492e-06
4.14847e-06
4.38468e-06
4.63427e-06
4.89804e-06
5.17669e-06
5.47101e-06
5.7818e-06
6.11e-06
6.4566e-06
6.82261e-06
7.20912e-06
7.61724e-06
8.04798e-06
8.5026e-06
8.9823e-06
9.48834e-06
1.00221e-05
1.05851e-05
1.11789e-05
1.18049e-05
1.24644e-05
1.31591e-05
1.38916e-05
1.46638e-05
1.54778e-05
1.63336e-05
1.72317e-05
1.81752e-05
1.91676e-05
2.02111e-05
2.13056e-05
2.2452e-05
2.36521e-05
2.49101e-05
2.62331e-05
2.76209e-05
2.90693e-05
3.0577e-05
3.21466e-05
3.37865e-05
3.5503e-05
3.7299e-05
3.91735e-05
4.11305e-05
4.31774e-05
4.53264e-05
4.75841e-05
4.99705e-05
5.25035e-05
5.52562e-05
5.83151e-05
6.18567e-05
6.59507e-05
7.08737e-05
7.68778e-05
8.47802e-05
9.80275e-05
0.000137125
0.000215009
2.90368e-05
1.24487e-06
8.26671e-08
1.22177e-08
2.38335e-10
6.13383e-11
6.22514e-11
1.40387e-10
4.46292e-08
1.95071e-07
4.32947e-07
6.71519e-07
8.42348e-07
9.37256e-07
9.87742e-07
1.02823e-06
1.07668e-06
1.13567e-06
1.20161e-06
1.27147e-06
1.3445e-06
1.42117e-06
1.50208e-06
1.58763e-06
1.67808e-06
1.77368e-06
1.87471e-06
1.98148e-06
2.09432e-06
2.21359e-06
2.33965e-06
2.47289e-06
2.61368e-06
2.76245e-06
2.91973e-06
3.08599e-06
3.2617e-06
3.44738e-06
3.64366e-06
3.85108e-06
4.07022e-06
4.30177e-06
4.54644e-06
4.80502e-06
5.07826e-06
5.36685e-06
5.67159e-06
5.9934e-06
6.33331e-06
6.69217e-06
7.0711e-06
7.4711e-06
7.89329e-06
8.33892e-06
8.80912e-06
9.30521e-06
9.8284e-06
1.03802e-05
1.09623e-05
1.15759e-05
1.22224e-05
1.29036e-05
1.3622e-05
1.438e-05
1.51788e-05
1.60182e-05
1.68991e-05
1.78241e-05
1.87974e-05
1.9821e-05
2.08945e-05
2.2019e-05
2.3197e-05
2.44332e-05
2.57328e-05
2.7097e-05
2.852e-05
3.00009e-05
3.15443e-05
3.31593e-05
3.48498e-05
3.66191e-05
3.84666e-05
4.03966e-05
4.24183e-05
4.45408e-05
4.6777e-05
4.91419e-05
5.16533e-05
5.43762e-05
5.73819e-05
6.08643e-05
6.49035e-05
6.98167e-05
7.5839e-05
8.38533e-05
9.74022e-05
0.000137352
0.000222925
2.97427e-05
2.61634e-06
2.30303e-07
4.38533e-09
1.11167e-09
1.10347e-10
1.03306e-10
5.68517e-11
2.3503e-08
1.38122e-07
3.54236e-07
5.99951e-07
7.95226e-07
9.12565e-07
9.73662e-07
1.01451e-06
1.05916e-06
1.11462e-06
1.17852e-06
1.24722e-06
1.31914e-06
1.39444e-06
1.47378e-06
1.55764e-06
1.64631e-06
1.74003e-06
1.83907e-06
1.94373e-06
2.05435e-06
2.17124e-06
2.2948e-06
2.42538e-06
2.56334e-06
2.70914e-06
2.86327e-06
3.02619e-06
3.19835e-06
3.38028e-06
3.57258e-06
3.7758e-06
3.99046e-06
4.21726e-06
4.45695e-06
4.71026e-06
4.97787e-06
5.26053e-06
5.55908e-06
5.87439e-06
6.20743e-06
6.55907e-06
6.93029e-06
7.32209e-06
7.73566e-06
8.1722e-06
8.63285e-06
9.11878e-06
9.63129e-06
1.01719e-05
1.07419e-05
1.13429e-05
1.19762e-05
1.26437e-05
1.33479e-05
1.40912e-05
1.48743e-05
1.56967e-05
1.65596e-05
1.74664e-05
1.84207e-05
1.94236e-05
2.04754e-05
2.15776e-05
2.2733e-05
2.39469e-05
2.5224e-05
2.65631e-05
2.79589e-05
2.94123e-05
3.09294e-05
3.25178e-05
3.41811e-05
3.59218e-05
3.77406e-05
3.96431e-05
4.16366e-05
4.37342e-05
4.59443e-05
4.82856e-05
5.07752e-05
5.3468e-05
5.64282e-05
5.98481e-05
6.38199e-05
6.87077e-05
7.47192e-05
8.28442e-05
9.66897e-05
0.000137476
0.000231661
3.04142e-05
8.13947e-07
8.96175e-08
8.78335e-09
1.00202e-10
4.0698e-11
7.64872e-11
1.09775e-09
1.04423e-08
9.158e-08
2.78949e-07
5.22595e-07
7.38432e-07
8.80311e-07
9.56362e-07
1.00067e-06
1.04237e-06
1.09385e-06
1.15511e-06
1.22235e-06
1.29314e-06
1.36714e-06
1.44491e-06
1.52704e-06
1.61389e-06
1.70569e-06
1.80271e-06
1.90523e-06
2.01357e-06
2.12806e-06
2.24907e-06
2.37694e-06
2.51203e-06
2.6548e-06
2.80574e-06
2.96525e-06
3.13379e-06
3.31192e-06
3.50019e-06
3.69911e-06
3.90924e-06
4.13125e-06
4.36587e-06
4.6138e-06
4.87573e-06
5.15235e-06
5.44454e-06
5.75318e-06
6.07922e-06
6.42347e-06
6.78683e-06
7.17033e-06
7.5751e-06
8.00236e-06
8.45332e-06
8.92908e-06
9.43081e-06
9.96005e-06
1.0518e-05
1.11063e-05
1.1726e-05
1.23797e-05
1.30696e-05
1.37978e-05
1.45645e-05
1.53695e-05
1.62138e-05
1.71017e-05
1.80364e-05
1.90186e-05
2.00484e-05
2.11284e-05
2.22612e-05
2.34521e-05
2.47051e-05
2.60187e-05
2.73874e-05
2.88126e-05
3.03023e-05
3.18633e-05
3.34993e-05
3.52102e-05
3.69989e-05
3.88717e-05
4.08364e-05
4.29046e-05
4.50873e-05
4.74021e-05
4.98657e-05
5.25287e-05
5.54451e-05
5.88046e-05
6.27015e-05
6.75482e-05
7.35385e-05
8.17381e-05
9.58656e-05
0.000137545
0.000240891
3.1048e-05
1.83327e-06
1.30771e-07
1.52814e-08
6.48782e-10
4.56335e-11
2.98728e-11
2.29214e-10
2.70002e-09
5.58159e-08
2.10091e-07
4.42097e-07
6.72319e-07
8.39079e-07
9.34191e-07
9.85823e-07
1.02627e-06
1.07367e-06
1.13159e-06
1.19693e-06
1.2665e-06
1.33924e-06
1.41548e-06
1.49588e-06
1.58086e-06
1.67072e-06
1.76568e-06
1.86602e-06
1.97205e-06
2.0841e-06
2.20251e-06
2.32763e-06
2.4598e-06
2.5995e-06
2.7472e-06
2.90325e-06
3.06813e-06
3.2424e-06
3.42657e-06
3.62113e-06
3.82663e-06
4.04379e-06
4.27329e-06
4.51576e-06
4.77189e-06
5.04238e-06
5.32813e-06
5.63e-06
5.94884e-06
6.28553e-06
6.64086e-06
7.01587e-06
7.41172e-06
7.82966e-06
8.27081e-06
8.73626e-06
9.22708e-06
9.74476e-06
1.02905e-05
1.08657e-05
1.14719e-05
1.21114e-05
1.27869e-05
1.34996e-05
1.42496e-05
1.50364e-05
1.58624e-05
1.67315e-05
1.76461e-05
1.8607e-05
1.96148e-05
2.06717e-05
2.17812e-05
2.29492e-05
2.41787e-05
2.54652e-05
2.68044e-05
2.82011e-05
2.96632e-05
3.11967e-05
3.28027e-05
3.44833e-05
3.62404e-05
3.80823e-05
4.00155e-05
4.20536e-05
4.42048e-05
4.64898e-05
4.89263e-05
5.15623e-05
5.44373e-05
5.77365e-05
6.15536e-05
6.63492e-05
7.22885e-05
8.05543e-05
9.49369e-05
0.000137115
0.000249031
3.16516e-05
3.05656e-06
1.00297e-08
2.82279e-09
1.27402e-09
8.31044e-11
1.7159e-11
8.18357e-11
2.66776e-10
3.04753e-08
1.49927e-07
3.61431e-07
5.98212e-07
7.88237e-07
9.05722e-07
9.68944e-07
1.01063e-06
1.05432e-06
1.10828e-06
1.17111e-06
1.23924e-06
1.31074e-06
1.38551e-06
1.46417e-06
1.54727e-06
1.63513e-06
1.728e-06
1.82613e-06
1.92982e-06
2.03938e-06
2.15517e-06
2.27748e-06
2.4067e-06
2.5433e-06
2.6877e-06
2.84023e-06
3.00141e-06
3.17176e-06
3.35178e-06
3.5419e-06
3.74274e-06
3.955e-06
4.17929e-06
4.41626e-06
4.66651e-06
4.93081e-06
5.21001e-06
5.50497e-06
5.81655e-06
6.14547e-06
6.49263e-06
6.85902e-06
7.24587e-06
7.65431e-06
8.08541e-06
8.54036e-06
9.0201e-06
9.52605e-06
1.00593e-05
1.06214e-05
1.12139e-05
1.18393e-05
1.24999e-05
1.31969e-05
1.39293e-05
1.46978e-05
1.55051e-05
1.63551e-05
1.72496e-05
1.8189e-05
1.9174e-05
2.02082e-05
2.12949e-05
2.24392e-05
2.3643e-05
2.49016e-05
2.62122e-05
2.75805e-05
2.90137e-05
3.05179e-05
3.20933e-05
3.37421e-05
3.54667e-05
3.72757e-05
3.9178e-05
4.11813e-05
4.32998e-05
4.55538e-05
4.79595e-05
5.05633e-05
5.33979e-05
5.66457e-05
6.03792e-05
6.51132e-05
7.0986e-05
7.92841e-05
9.39217e-05
0.000136393
0.000255666
3.22268e-05
1.89105e-06
1.24137e-07
1.31161e-08
2.02077e-10
2.06369e-11
1.21564e-11
1.41139e-10
1.45406e-09
1.45303e-08
1.00016e-07
2.8371e-07
5.1837e-07
7.28274e-07
8.70247e-07
9.49113e-07
9.94948e-07
1.03583e-06
1.08541e-06
1.14507e-06
1.2114e-06
1.28162e-06
1.35499e-06
1.43196e-06
1.51315e-06
1.59898e-06
1.68972e-06
1.78561e-06
1.88692e-06
1.99398e-06
2.1071e-06
2.22656e-06
2.3528e-06
2.48627e-06
2.62732e-06
2.77629e-06
2.93372e-06
3.10013e-06
3.27591e-06
3.46155e-06
3.65768e-06
3.86497e-06
4.08399e-06
4.31535e-06
4.55968e-06
4.8177e-06
5.09031e-06
5.37831e-06
5.68247e-06
6.00353e-06
6.34239e-06
6.70011e-06
7.0778e-06
7.47655e-06
7.89747e-06
8.34169e-06
8.81012e-06
9.30425e-06
9.82495e-06
1.03737e-05
1.09523e-05
1.15635e-05
1.22092e-05
1.289e-05
1.36046e-05
1.43543e-05
1.51428e-05
1.59736e-05
1.68476e-05
1.7765e-05
1.87277e-05
1.97385e-05
2.08012e-05
2.19218e-05
2.31001e-05
2.43293e-05
2.56099e-05
2.69488e-05
2.83539e-05
2.98279e-05
3.13718e-05
3.29867e-05
3.46789e-05
3.6454e-05
3.83212e-05
4.02915e-05
4.23732e-05
4.45928e-05
4.69632e-05
4.95351e-05
5.23297e-05
5.55266e-05
5.91817e-05
6.38479e-05
6.96322e-05
7.79497e-05
9.27908e-05
0.000135331
0.00025976
3.19948e-07
5.44321e-08
4.18389e-09
8.6389e-10
9.06675e-11
4.88159e-12
4.9645e-11
4.88644e-10
5.0919e-09
6.11389e-08
2.12017e-07
4.35809e-07
6.60743e-07
8.27875e-07
9.25676e-07
9.78576e-07
1.01796e-06
1.06312e-06
1.11904e-06
1.18312e-06
1.25192e-06
1.32393e-06
1.39926e-06
1.47855e-06
1.56232e-06
1.6509e-06
1.74451e-06
1.84342e-06
1.94793e-06
2.05835e-06
2.17493e-06
2.29817e-06
2.42848e-06
2.5661e-06
2.71147e-06
2.86513e-06
3.02752e-06
3.19902e-06
3.38013e-06
3.57152e-06
3.77381e-06
3.98749e-06
4.21317e-06
4.4515e-06
4.70324e-06
4.9692e-06
5.25014e-06
5.54678e-06
5.8599e-06
6.19038e-06
6.53925e-06
6.9077e-06
7.29674e-06
7.70736e-06
8.14063e-06
8.59762e-06
9.07954e-06
9.58737e-06
1.01227e-05
1.06876e-05
1.12845e-05
1.19149e-05
1.25787e-05
1.32751e-05
1.40063e-05
1.47762e-05
1.55876e-05
1.64406e-05
1.73358e-05
1.82751e-05
1.92628e-05
2.03023e-05
2.13985e-05
2.25495e-05
2.37486e-05
2.49989e-05
2.63087e-05
2.76846e-05
2.91268e-05
3.06378e-05
3.22189e-05
3.38764e-05
3.56178e-05
3.74491e-05
3.93825e-05
4.14274e-05
4.36078e-05
4.59426e-05
4.84783e-05
5.12343e-05
5.43827e-05
5.7965e-05
6.25584e-05
6.82436e-05
7.65463e-05
9.16032e-05
0.000134049
0.00026122
4.28681e-08
8.73423e-09
1.1623e-09
1.01535e-11
1.90732e-12
1.42893e-11
1.31594e-10
8.55336e-10
3.31604e-08
1.49286e-07
3.53968e-07
5.8758e-07
7.78857e-07
8.9788e-07
9.60545e-07
1.00009e-06
1.04132e-06
1.09323e-06
1.15463e-06
1.22175e-06
1.29234e-06
1.36607e-06
1.44348e-06
1.52519e-06
1.61157e-06
1.70288e-06
1.79936e-06
1.9013e-06
2.00898e-06
2.12265e-06
2.24289e-06
2.36997e-06
2.50412e-06
2.64587e-06
2.79574e-06
2.95406e-06
3.1212e-06
3.29776e-06
3.48439e-06
3.68161e-06
3.88987e-06
4.10982e-06
4.34211e-06
4.58749e-06
4.84676e-06
5.12058e-06
5.40964e-06
5.71468e-06
6.03675e-06
6.37681e-06
6.73592e-06
7.11508e-06
7.51522e-06
7.93744e-06
8.38283e-06
8.85239e-06
9.34731e-06
9.86906e-06
1.04201e-05
1.10026e-05
1.16174e-05
1.22639e-05
1.29416e-05
1.36542e-05
1.44057e-05
1.51973e-05
1.60287e-05
1.69011e-05
1.78179e-05
1.8782e-05
1.97976e-05
2.08693e-05
2.19919e-05
2.31599e-05
2.43802e-05
2.56609e-05
2.70063e-05
2.84166e-05
2.98938e-05
3.14407e-05
3.30627e-05
3.47669e-05
3.65615e-05
3.84561e-05
4.04627e-05
4.26049e-05
4.48981e-05
4.73952e-05
5.01107e-05
5.32123e-05
5.67236e-05
6.1249e-05
6.68298e-05
7.50988e-05
9.03582e-05
0.000132737
0.000260361
8.27203e-11
2.05017e-12
7.25989e-12
3.09202e-11
1.59242e-09
1.54601e-08
9.77263e-08
2.76072e-07
5.10136e-07
7.22344e-07
8.63911e-07
9.39184e-07
9.81224e-07
1.01968e-06
1.06778e-06
1.12619e-06
1.1913e-06
1.26031e-06
1.3324e-06
1.40797e-06
1.48762e-06
1.57179e-06
1.66077e-06
1.75479e-06
1.85414e-06
1.95904e-06
2.0698e-06
2.18702e-06
2.3108e-06
2.44146e-06
2.5796e-06
2.72563e-06
2.8798e-06
3.04257e-06
3.21458e-06
3.39639e-06
3.58845e-06
3.79127e-06
4.00546e-06
4.23167e-06
4.47065e-06
4.72317e-06
4.98976e-06
5.27114e-06
5.56815e-06
5.88173e-06
6.2129e-06
6.56261e-06
6.93182e-06
7.32142e-06
7.73242e-06
8.16603e-06
8.62318e-06
9.10497e-06
9.6132e-06
1.01505e-05
1.07184e-05
1.13172e-05
1.19457e-05
1.26049e-05
1.32992e-05
1.40321e-05
1.48032e-05
1.56125e-05
1.64622e-05
1.7356e-05
1.82967e-05
1.92884e-05
2.03346e-05
2.14274e-05
2.25643e-05
2.37547e-05
2.50068e-05
2.63208e-05
2.76979e-05
2.91399e-05
3.06514e-05
3.22373e-05
3.39047e-05
3.56607e-05
3.75149e-05
3.94797e-05
4.15783e-05
4.38301e-05
4.62842e-05
4.89587e-05
5.20192e-05
5.54619e-05
5.99212e-05
6.53904e-05
7.36226e-05
8.9088e-05
0.000131328
0.000257558
7.29348e-12
5.24643e-12
6.86351e-11
6.22106e-10
5.60205e-09
5.85248e-08
2.0483e-07
4.28888e-07
6.55703e-07
8.2006e-07
9.11645e-07
9.59867e-07
9.97738e-07
1.04276e-06
1.09809e-06
1.16082e-06
1.22795e-06
1.2983e-06
1.372e-06
1.44961e-06
1.53158e-06
1.61821e-06
1.70975e-06
1.80648e-06
1.90856e-06
2.01646e-06
2.13064e-06
2.25104e-06
2.37821e-06
2.51273e-06
2.65485e-06
2.80481e-06
2.96321e-06
3.13067e-06
3.30762e-06
3.49449e-06
3.6918e-06
3.90017e-06
4.12029e-06
4.35286e-06
4.59853e-06
4.85783e-06
5.13151e-06
5.42042e-06
5.72552e-06
6.04774e-06
6.38795e-06
6.74712e-06
7.12609e-06
7.52589e-06
7.94759e-06
8.39215e-06
8.86077e-06
9.35558e-06
9.87914e-06
1.04323e-05
1.10143e-05
1.16245e-05
1.22653e-05
1.29418e-05
1.36556e-05
1.44058e-05
1.51928e-05
1.60201e-05
1.68907e-05
1.78075e-05
1.87755e-05
1.97949e-05
2.08561e-05
2.19622e-05
2.31236e-05
2.43456e-05
2.56278e-05
2.6971e-05
2.83773e-05
2.98532e-05
3.14023e-05
3.30305e-05
3.47466e-05
3.65598e-05
3.8483e-05
4.05385e-05
4.27434e-05
4.51517e-05
4.778e-05
5.07953e-05
5.41815e-05
5.85797e-05
6.3934e-05
7.21267e-05
8.78042e-05
0.000129962
0.000253594
1.23193e-12
2.71721e-11
2.36067e-10
1.07927e-09
3.1206e-08
1.42434e-07