/*--------------------------------*- C++ -*----------------------------------*\
  =========                 |
  \\      /  F ield         | OpenFOAM: The Open Source CFD Toolbox
   \\    /   O peration     | Website:  https://openfoam.org
    \\  /    A nd           | Version:  9
     \\/     M anipulation  |
\*---------------------------------------------------------------------------*/
FoamFile
{
    format      ascii;
    class       volScalarField;
    location    "3000";
    object      nut;
}
// * * * * * * * * * * * * * * * * * * * * * * * * * * * * * * * * * * * * * //

dimensions      [0 2 -1 0 0 0 0];

internalField   nonuniform List<scalar> 
13538
(
8.78805e-07
5.40078e-07
3.42876e-06
2.28215e-07
2.23098e-08
2.7186e-07
4.58878e-07
5.78391e-07
6.31362e-07
6.40849e-07
6.35997e-07
6.32537e-07
6.32435e-07
6.33477e-07
6.3442e-07
6.35166e-07
6.35873e-07
6.36607e-07
6.37369e-07
6.38152e-07
6.38957e-07
6.39787e-07
6.40642e-07
6.41526e-07
6.42439e-07
6.43383e-07
6.4436e-07
6.45372e-07
6.4642e-07
6.47507e-07
6.48634e-07
6.49803e-07
6.51016e-07
6.52273e-07
6.53575e-07
6.54924e-07
6.56325e-07
6.5778e-07
6.59292e-07
6.6086e-07
6.62484e-07
6.64163e-07
6.659e-07
6.67697e-07
6.69556e-07
6.71478e-07
6.73465e-07
6.7552e-07
6.77645e-07
6.79839e-07
6.82104e-07
6.84443e-07
6.86856e-07
6.89343e-07
6.91908e-07
6.94555e-07
6.97283e-07
7.00087e-07
7.0297e-07
7.05933e-07
7.08976e-07
7.121e-07
7.15304e-07
7.1859e-07
7.21955e-07
7.25391e-07
7.28902e-07
7.325e-07
7.36178e-07
7.39929e-07
7.43735e-07
7.47599e-07
7.51548e-07
7.55508e-07
7.59232e-07
7.62361e-07
7.6463e-07
7.65849e-07
7.65968e-07
7.65206e-07
7.63766e-07
7.61852e-07
7.59657e-07
7.57152e-07
7.54617e-07
7.53044e-07
7.53903e-07
7.5811e-07
7.65271e-07
7.7423e-07
7.842e-07
7.9508e-07
8.08262e-07
8.24315e-07
8.48995e-07
9.16937e-07
1.12264e-06
1.3623e-06
2.19518e-07
8.89983e-07
5.43871e-07
6.69351e-06
2.99578e-06
8.34175e-08
2.58014e-07
4.34372e-07
5.59132e-07
6.22932e-07
6.40119e-07
6.37331e-07
6.33128e-07
6.32238e-07
6.33089e-07
6.34096e-07
6.34896e-07
6.35609e-07
6.36336e-07
6.37091e-07
6.3787e-07
6.3867e-07
6.39494e-07
6.40343e-07
6.4122e-07
6.42125e-07
6.4306e-07
6.44028e-07
6.4503e-07
6.46068e-07
6.47143e-07
6.48258e-07
6.49413e-07
6.50612e-07
6.51854e-07
6.53139e-07
6.54468e-07
6.55843e-07
6.57272e-07
6.58758e-07
6.60301e-07
6.61901e-07
6.63558e-07
6.65271e-07
6.67043e-07
6.68875e-07
6.70767e-07
6.72724e-07
6.74746e-07
6.76836e-07
6.78995e-07
6.81223e-07
6.83522e-07
6.85894e-07
6.88339e-07
6.90859e-07
6.93455e-07
6.96128e-07
6.98879e-07
7.01706e-07
7.04613e-07
7.07598e-07
7.10663e-07
7.13807e-07
7.17029e-07
7.20333e-07
7.23715e-07
7.27172e-07
7.30707e-07
7.34315e-07
7.37997e-07
7.41755e-07
7.45581e-07
7.49479e-07
7.53384e-07
7.57072e-07
7.60207e-07
7.62512e-07
7.63791e-07
7.63988e-07
7.63315e-07
7.61989e-07
7.60193e-07
7.58135e-07
7.55829e-07
7.53399e-07
7.5155e-07
7.51657e-07
7.54979e-07
7.61573e-07
7.70391e-07
7.8048e-07
7.91411e-07
8.04556e-07
8.20686e-07
8.43643e-07
8.97686e-07
1.07845e-06
1.36445e-06
2.30705e-07
8.95439e-07
1.20948e-06
6.63005e-09
4.05269e-07
8.83419e-08
1.95348e-07
3.8069e-07
5.23689e-07
6.07502e-07
6.37816e-07
6.38856e-07
6.33694e-07
6.31507e-07
6.31955e-07
6.33024e-07
6.3391e-07
6.34641e-07
6.35356e-07
6.36099e-07
6.36869e-07
6.37661e-07
6.38475e-07
6.39313e-07
6.40178e-07
6.4107e-07
6.41992e-07
6.42946e-07
6.43934e-07
6.44956e-07
6.46015e-07
6.47113e-07
6.48251e-07
6.49431e-07
6.50655e-07
6.5192e-07
6.53225e-07
6.54573e-07
6.55971e-07
6.57424e-07
6.58937e-07
6.6051e-07
6.62143e-07
6.63834e-07
6.65584e-07
6.67393e-07
6.69261e-07
6.71193e-07
6.73189e-07
6.75252e-07
6.77384e-07
6.79585e-07
6.81857e-07
6.84202e-07
6.8662e-07
6.89113e-07
6.91682e-07
6.94328e-07
6.97051e-07
6.99853e-07
7.02735e-07
7.05697e-07
7.08739e-07
7.1186e-07
7.15061e-07
7.1834e-07
7.217e-07
7.25135e-07
7.28642e-07
7.32222e-07
7.35874e-07
7.3961e-07
7.43422e-07
7.473e-07
7.51178e-07
7.54846e-07
7.5799e-07
7.60333e-07
7.61652e-07
7.61931e-07
7.61374e-07
7.60185e-07
7.58553e-07
7.56662e-07
7.54558e-07
7.52308e-07
7.50404e-07
7.50049e-07
7.52653e-07
7.58675e-07
7.67301e-07
7.77516e-07
7.88651e-07
8.01911e-07
8.18202e-07
8.41002e-07
8.88672e-07
1.05029e-06
1.35696e-06
2.41113e-07
8.98606e-07
1.71286e-06
1.67763e-07
2.51068e-07
8.113e-08
1.53276e-07
3.32552e-07
4.85711e-07
5.86838e-07
6.32043e-07
6.39703e-07
6.34781e-07
6.31191e-07
6.30913e-07
6.31927e-07
6.32917e-07
6.33695e-07
6.34407e-07
6.35139e-07
6.35902e-07
6.36687e-07
6.37494e-07
6.38325e-07
6.39181e-07
6.40064e-07
6.40976e-07
6.41919e-07
6.42895e-07
6.43905e-07
6.44951e-07
6.46035e-07
6.47158e-07
6.48323e-07
6.49531e-07
6.5078e-07
6.52067e-07
6.53394e-07
6.54764e-07
6.56186e-07
6.57665e-07
6.59208e-07
6.60814e-07
6.62483e-07
6.64211e-07
6.65999e-07
6.67846e-07
6.69754e-07
6.71727e-07
6.73765e-07
6.7587e-07
6.78045e-07
6.8029e-07
6.82607e-07
6.84997e-07
6.87462e-07
6.90002e-07
6.9262e-07
6.95316e-07
6.98089e-07
7.00942e-07
7.03875e-07
7.06887e-07
7.09978e-07
7.13148e-07
7.16397e-07
7.19725e-07
7.2313e-07
7.26612e-07
7.30167e-07
7.33802e-07
7.37518e-07
7.41317e-07
7.45178e-07
7.49016e-07
7.52641e-07
7.55759e-07
7.58107e-07
7.59449e-07
7.59798e-07
7.59361e-07
7.58318e-07
7.56869e-07
7.5518e-07
7.53308e-07
7.51273e-07
7.4937e-07
7.48593e-07
7.50425e-07
7.55709e-07
7.63955e-07
7.74154e-07
7.85454e-07
7.98855e-07
8.15315e-07
8.38025e-07
8.80534e-07
1.02334e-06
1.34456e-06
2.50597e-07
9.00664e-07
1.78259e-06
2.45003e-07
7.61022e-08
1.48795e-07
1.07605e-07
2.82579e-07
4.4346e-07
5.60671e-07
6.22305e-07
6.39343e-07
6.3625e-07
6.31397e-07
6.30066e-07
6.30837e-07
6.31915e-07
6.32766e-07
6.33488e-07
6.34209e-07
6.3496e-07
6.35738e-07
6.36537e-07
6.37358e-07
6.38204e-07
6.39076e-07
6.39976e-07
6.40907e-07
6.41869e-07
6.42865e-07
6.43897e-07
6.44965e-07
6.46071e-07
6.47219e-07
6.48409e-07
6.4964e-07
6.50911e-07
6.52219e-07
6.53566e-07
6.54958e-07
6.56402e-07
6.57908e-07
6.5948e-07
6.61118e-07
6.62819e-07
6.64583e-07
6.66407e-07
6.68292e-07
6.70241e-07
6.72253e-07
6.74332e-07
6.76479e-07
6.78696e-07
6.80985e-07
6.83346e-07
6.85782e-07
6.88293e-07
6.90881e-07
6.93546e-07
6.9629e-07
6.99114e-07
7.02018e-07
7.05001e-07
7.08061e-07
7.11199e-07
7.14418e-07
7.17719e-07
7.21099e-07
7.24554e-07
7.28089e-07
7.31707e-07
7.35409e-07
7.39189e-07
7.43025e-07
7.46834e-07
7.50427e-07
7.53536e-07
7.5589e-07
7.57237e-07
7.57631e-07
7.57281e-07
7.56357e-07
7.55078e-07
7.536e-07
7.51974e-07
7.50193e-07
7.48402e-07
7.4737e-07
7.48541e-07
7.53051e-07
7.60774e-07
7.70799e-07
7.82178e-07
7.95713e-07
8.12346e-07
8.35249e-07
8.74576e-07
1.00069e-06
1.3278e-06
2.58662e-07
9.02164e-07
1.33491e-06
1.57444e-07
3.80013e-06
1.07005e-07
6.19634e-08
2.3344e-07
3.98463e-07
5.29249e-07
6.07784e-07
6.36818e-07
6.37691e-07
6.32133e-07
6.29488e-07
6.29755e-07
6.30856e-07
6.31805e-07
6.32557e-07
6.33268e-07
6.34007e-07
6.34775e-07
6.35565e-07
6.36377e-07
6.37212e-07
6.38073e-07
6.38961e-07
6.39878e-07
6.40827e-07
6.41808e-07
6.42824e-07
6.43876e-07
6.44966e-07
6.46096e-07
6.47266e-07
6.48479e-07
6.49735e-07
6.51031e-07
6.52364e-07
6.53734e-07
6.55148e-07
6.56618e-07
6.58152e-07
6.59753e-07
6.61421e-07
6.63155e-07
6.64953e-07
6.66815e-07
6.68739e-07
6.70727e-07
6.7278e-07
6.749e-07
6.77089e-07
6.7935e-07
6.81683e-07
6.8409e-07
6.86571e-07
6.89129e-07
6.91765e-07
6.94479e-07
6.97272e-07
7.00145e-07
7.03097e-07
7.06126e-07
7.09232e-07
7.1242e-07
7.15689e-07
7.19041e-07
7.22473e-07
7.25989e-07
7.29595e-07
7.33285e-07
7.37051e-07
7.40866e-07
7.44644e-07
7.48197e-07
7.51272e-07
7.53601e-07
7.54955e-07
7.55404e-07
7.55166e-07
7.54383e-07
7.53257e-07
7.51955e-07
7.50547e-07
7.49015e-07
7.47397e-07
7.46237e-07
7.46879e-07
7.50646e-07
7.57767e-07
7.67493e-07
7.78869e-07
7.92441e-07
8.09206e-07
8.32298e-07
8.69798e-07
9.81666e-07
1.30851e-06
2.66828e-07
9.03268e-07
1.0815e-07
4.07733e-06
3.23447e-07
2.00865e-07
2.0751e-08
1.85678e-07
3.51553e-07
4.93052e-07
5.8805e-07
6.31241e-07
6.38574e-07
6.33354e-07
6.29303e-07
6.28752e-07
6.29745e-07
6.30798e-07
6.31608e-07
6.32319e-07
6.33042e-07
6.33798e-07
6.34578e-07
6.3538e-07
6.36204e-07
6.37052e-07
6.37927e-07
6.38831e-07
6.39765e-07
6.40731e-07
6.41731e-07
6.42766e-07
6.43838e-07
6.44948e-07
6.46098e-07
6.47292e-07
6.48532e-07
6.49818e-07
6.51143e-07
6.52502e-07
6.53898e-07
6.5534e-07
6.56838e-07
6.58399e-07
6.60027e-07
6.61725e-07
6.63492e-07
6.65325e-07
6.67223e-07
6.69185e-07
6.71212e-07
6.73304e-07
6.75466e-07
6.77698e-07
6.80003e-07
6.82381e-07
6.84833e-07
6.87361e-07
6.89966e-07
6.92648e-07
6.9541e-07
6.98252e-07
7.01173e-07
7.0417e-07
7.07246e-07
7.10402e-07
7.13643e-07
7.16968e-07
7.20374e-07
7.23874e-07
7.27469e-07
7.31149e-07
7.34895e-07
7.3868e-07
7.42417e-07
7.45917e-07
7.48944e-07
7.51237e-07
7.52582e-07
7.5308e-07
7.52943e-07
7.52307e-07
7.5137e-07
7.50284e-07
7.49092e-07
7.47766e-07
7.46311e-07
7.45115e-07
7.45367e-07
7.48453e-07
7.54941e-07
7.64305e-07
7.75586e-07
7.89128e-07
8.05967e-07
8.29225e-07
8.6584e-07
9.65303e-07
1.28764e-06
2.73597e-07
9.04213e-07
4.89512e-06
1.94111e-06
8.64967e-06
3.54419e-08
5.88758e-08
1.41569e-07
3.03762e-07
4.5279e-07
5.62962e-07
6.21758e-07
6.38184e-07
6.34869e-07
6.29592e-07
6.27911e-07
6.2859e-07
6.29718e-07
6.30615e-07
6.31343e-07
6.32051e-07
6.32792e-07
6.33561e-07
6.34352e-07
6.35165e-07
6.36001e-07
6.36862e-07
6.37752e-07
6.38671e-07
6.39621e-07
6.40604e-07
6.41622e-07
6.42677e-07
6.43768e-07
6.44898e-07
6.46071e-07
6.47293e-07
6.48567e-07
6.49886e-07
6.51243e-07
6.52634e-07
6.54061e-07
6.55532e-07
6.57057e-07
6.58645e-07
6.60302e-07
6.6203e-07
6.63829e-07
6.65696e-07
6.67629e-07
6.69628e-07
6.71692e-07
6.73826e-07
6.76029e-07
6.78305e-07
6.80654e-07
6.83076e-07
6.85574e-07
6.88147e-07
6.90798e-07
6.93529e-07
6.96338e-07
6.99227e-07
7.02194e-07
7.05239e-07
7.08369e-07
7.11583e-07
7.1488e-07
7.18263e-07
7.21743e-07
7.25324e-07
7.28988e-07
7.32711e-07
7.36457e-07
7.40144e-07
7.43581e-07
7.46549e-07
7.48783e-07
7.50117e-07
7.50673e-07
7.50646e-07
7.5016e-07
7.49402e-07
7.48519e-07
7.47549e-07
7.46456e-07
7.45191e-07
7.43995e-07
7.43934e-07
7.46398e-07
7.52241e-07
7.61173e-07
7.72347e-07
7.85819e-07
8.02669e-07
8.25982e-07
8.62322e-07
9.5207e-07
1.26682e-06
2.81101e-07
9.04983e-07
6.03714e-06
1.00719e-07
9.61962e-07
1.69092e-07
1.36452e-08
1.01966e-07
2.56172e-07
4.09395e-07
5.32702e-07
6.07699e-07
6.35706e-07
6.36334e-07
6.30396e-07
6.27341e-07
6.27432e-07
6.28554e-07
6.29561e-07
6.30331e-07
6.31031e-07
6.31755e-07
6.32511e-07
6.33292e-07
6.34093e-07
6.34917e-07
6.35765e-07
6.36641e-07
6.37545e-07
6.3848e-07
6.39447e-07
6.40448e-07
6.41485e-07
6.42558e-07
6.43668e-07
6.4482e-07
6.46022e-07
6.4728e-07
6.48589e-07
6.49944e-07
6.51335e-07
6.5276e-07
6.54219e-07
6.5572e-07
6.57275e-07
6.58891e-07
6.60578e-07
6.62336e-07
6.64166e-07
6.66065e-07
6.68033e-07
6.70068e-07
6.72171e-07
6.74345e-07
6.7659e-07
6.78909e-07
6.81301e-07
6.83767e-07
6.86309e-07
6.88928e-07
6.91625e-07
6.94402e-07
6.97258e-07
7.00194e-07
7.03213e-07
7.06319e-07
7.0951e-07
7.12782e-07
7.16138e-07
7.19595e-07
7.23157e-07
7.26798e-07
7.30487e-07
7.3419e-07
7.37821e-07
7.4119e-07
7.44092e-07
7.46247e-07
7.47572e-07
7.48188e-07
7.48274e-07
7.4794e-07
7.47371e-07
7.46694e-07
7.4593e-07
7.45039e-07
7.43963e-07
7.42863e-07
7.42601e-07
7.44481e-07
7.49632e-07
7.58068e-07
7.6909e-07
7.82482e-07
7.99355e-07
8.22624e-07
8.5902e-07
9.41314e-07
1.24682e-06
2.8607e-07
9.05656e-07
6.35885e-06
1.36286e-07
4.15126e-07
2.22942e-07
4.22085e-08
6.49275e-08
2.09667e-07
3.63927e-07
4.97761e-07
5.88633e-07
6.30289e-07
6.37236e-07
6.31669e-07
6.27168e-07
6.26352e-07
6.27319e-07
6.28434e-07
6.29279e-07
6.29985e-07
6.30692e-07
6.31433e-07
6.32203e-07
6.32994e-07
6.33806e-07
6.34642e-07
6.35504e-07
6.36395e-07
6.37315e-07
6.38266e-07
6.39251e-07
6.4027e-07
6.41326e-07
6.42418e-07
6.4355e-07
6.44731e-07
6.45966e-07
6.47258e-07
6.48602e-07
6.49992e-07
6.51419e-07
6.52877e-07
6.54369e-07
6.55903e-07
6.57489e-07
6.59138e-07
6.60854e-07
6.62642e-07
6.64502e-07
6.66434e-07
6.68436e-07
6.70508e-07
6.72649e-07
6.74861e-07
6.77146e-07
6.79506e-07
6.8194e-07
6.8445e-07
6.87037e-07
6.89701e-07
6.92443e-07
6.95265e-07
6.98171e-07
7.01167e-07
7.04255e-07
7.07426e-07
7.10673e-07
7.14e-07
7.17427e-07
7.20957e-07
7.24563e-07
7.28211e-07
7.31862e-07
7.35428e-07
7.38718e-07
7.41547e-07
7.43652e-07
7.44974e-07
7.45654e-07
7.45854e-07
7.45672e-07
7.45283e-07
7.448e-07
7.44228e-07
7.43527e-07
7.42636e-07
7.41652e-07
7.41281e-07
7.42707e-07
7.47171e-07
7.54993e-07
7.65768e-07
7.79076e-07
7.95985e-07
8.19152e-07
8.5571e-07
9.32944e-07
1.22936e-06
2.913e-07
9.06247e-07
7.91803e-07
1.09645e-06
1.04245e-07
1.19375e-07
3.84554e-08
2.94027e-08
1.65025e-07
3.17448e-07
4.58869e-07
5.64419e-07
6.21133e-07
6.36914e-07
6.33243e-07
6.27498e-07
6.25466e-07
6.26054e-07
6.27236e-07
6.28186e-07
6.28922e-07
6.29616e-07
6.30341e-07
6.31099e-07
6.3188e-07
6.32681e-07
6.33506e-07
6.34355e-07
6.35233e-07
6.36139e-07
6.37075e-07
6.38044e-07
6.39048e-07
6.40086e-07
6.41161e-07
6.42275e-07
6.43434e-07
6.44643e-07
6.45909e-07
6.47232e-07
6.48609e-07
6.50032e-07
6.51491e-07
6.52982e-07
6.5451e-07
6.56081e-07
6.57702e-07
6.59382e-07
6.61129e-07
6.62947e-07
6.6484e-07
6.66806e-07
6.68842e-07
6.70948e-07
6.73124e-07
6.75373e-07
6.77696e-07
6.80096e-07
6.82573e-07
6.85127e-07
6.87757e-07
6.90465e-07
6.93253e-07
6.96129e-07
6.99102e-07
7.02173e-07
7.05327e-07
7.08547e-07
7.1184e-07
7.15229e-07
7.18717e-07
7.22279e-07
7.25878e-07
7.29475e-07
7.32977e-07
7.36197e-07
7.3894e-07
7.40991e-07
7.42317e-07
7.43064e-07
7.43379e-07
7.43349e-07
7.43135e-07
7.42837e-07
7.42445e-07
7.41913e-07
7.412e-07
7.4037e-07
7.3996e-07
7.40996e-07
7.44826e-07
7.51991e-07
7.62406e-07
7.75561e-07
7.925e-07
8.15563e-07
8.52382e-07
9.26093e-07
1.21546e-06
2.96433e-07
9.06726e-07
1.37983e-06
2.49833e-06
2.43822e-07
1.60748e-07
3.42007e-08
5.72661e-09
1.23615e-07
2.70876e-07
4.16848e-07
5.35191e-07
6.0757e-07
6.34584e-07
6.34791e-07
6.28387e-07
6.24913e-07
6.24831e-07
6.25979e-07
6.27052e-07
6.27848e-07
6.2854e-07
6.29248e-07
6.29992e-07
6.30763e-07
6.31555e-07
6.32369e-07
6.33206e-07
6.34071e-07
6.34963e-07
6.35886e-07
6.3684e-07
6.37827e-07
6.38849e-07
6.39907e-07
6.41003e-07
6.4214e-07
6.43324e-07
6.44558e-07
6.45851e-07
6.47202e-07
6.48607e-07
6.50057e-07
6.51548e-07
6.53077e-07
6.54644e-07
6.56253e-07
6.57909e-07
6.59622e-07
6.61402e-07
6.63254e-07
6.65182e-07
6.67181e-07
6.6925e-07
6.71387e-07
6.73595e-07
6.75878e-07
6.7824e-07
6.80681e-07
6.832e-07
6.85798e-07
6.88471e-07
6.91224e-07
6.94067e-07
6.97017e-07
7.00071e-07
7.03206e-07
7.06397e-07
7.09651e-07
7.12992e-07
7.16428e-07
7.19938e-07
7.23486e-07
7.27031e-07
7.30467e-07
7.33614e-07
7.36265e-07
7.38271e-07
7.39608e-07
7.40429e-07
7.40853e-07
7.40968e-07
7.40925e-07
7.40805e-07
7.40573e-07
7.40197e-07
7.3966e-07
7.38998e-07
7.38617e-07
7.39359e-07
7.42576e-07
7.4905e-07
7.59029e-07
7.71946e-07
7.88886e-07
8.11822e-07
8.48883e-07
9.20443e-07
1.20619e-06
3.00383e-07
9.07171e-07
1.17938e-06
1.45662e-06
2.47657e-07
4.09657e-07
2.28616e-08
9.97499e-09
8.72916e-08
2.25194e-07
3.72572e-07
5.01296e-07
5.89115e-07
6.29403e-07
6.35815e-07
6.29793e-07
6.24825e-07
6.23748e-07
6.24691e-07
6.25874e-07
6.26764e-07
6.27472e-07
6.28164e-07
6.28893e-07
6.29653e-07
6.30435e-07
6.31238e-07
6.32064e-07
6.32915e-07
6.33794e-07
6.34703e-07
6.35641e-07
6.36612e-07
6.37618e-07
6.38658e-07
6.39737e-07
6.40854e-07
6.42012e-07
6.43217e-07
6.44474e-07
6.4579e-07
6.47164e-07
6.48591e-07
6.5007e-07
6.51596e-07
6.53162e-07
6.54767e-07
6.56412e-07
6.58105e-07
6.59856e-07
6.61673e-07
6.63562e-07
6.65524e-07
6.67554e-07
6.69653e-07
6.7182e-07
6.74061e-07
6.7638e-07
6.78782e-07
6.81265e-07
6.83827e-07
6.86466e-07
6.89182e-07
6.91994e-07
6.94917e-07
6.97947e-07
7.01055e-07
7.04212e-07
7.07421e-07
7.10707e-07
7.14084e-07
7.17538e-07
7.21037e-07
7.24531e-07
7.27898e-07
7.30982e-07
7.33569e-07
7.35532e-07
7.36877e-07
7.37761e-07
7.38281e-07
7.38541e-07
7.38664e-07
7.38704e-07
7.38617e-07
7.38378e-07
7.38005e-07
7.37531e-07
7.37234e-07
7.37768e-07
7.4044e-07
7.46192e-07
7.5563e-07
7.68249e-07
7.85151e-07
8.07904e-07
8.45142e-07
9.15483e-07
1.20181e-06
3.05955e-07
9.07635e-07
1.25506e-06
1.99249e-06
9.10961e-07
4.59044e-08
2.53498e-08
3.13157e-08
5.51868e-08
1.81267e-07
3.26941e-07
4.63249e-07
5.65491e-07
6.20533e-07
6.35649e-07
6.31538e-07
6.25305e-07
6.22922e-07
6.23412e-07
6.24646e-07
6.25657e-07
6.26409e-07
6.27091e-07
6.27801e-07
6.28548e-07
6.2932e-07
6.30112e-07
6.30926e-07
6.31765e-07
6.3263e-07
6.33524e-07
6.34447e-07
6.35402e-07
6.3639e-07
6.37413e-07
6.38473e-07
6.3957e-07
6.40706e-07
6.41884e-07
6.43109e-07
6.44387e-07
6.45722e-07
6.47114e-07
6.48565e-07
6.50074e-07
6.51632e-07
6.53233e-07
6.54873e-07
6.56556e-07
6.58289e-07
6.6008e-07
6.61937e-07
6.63862e-07
6.65857e-07
6.6792e-07
6.70049e-07
6.72248e-07
6.74524e-07
6.76882e-07
6.79326e-07
6.81852e-07
6.84454e-07
6.87135e-07
6.89909e-07
6.92799e-07
6.95798e-07
6.98871e-07
7.01986e-07
7.05143e-07
7.08371e-07
7.11689e-07
7.15088e-07
7.18541e-07
7.21984e-07
7.25283e-07
7.28308e-07
7.30824e-07
7.32748e-07
7.34109e-07
7.35058e-07
7.3568e-07
7.36071e-07
7.36341e-07
7.36523e-07
7.3657e-07
7.36466e-07
7.36255e-07
7.35971e-07
7.35795e-07
7.36206e-07
7.38408e-07
7.4344e-07
7.52255e-07
7.64464e-07
7.81277e-07
8.03797e-07
8.41175e-07
9.10643e-07
1.20191e-06
3.11611e-07
9.08077e-07
9.70572e-08
9.42977e-08
4.55638e-07
9.81091e-07
7.0944e-08
2.05568e-08
2.44252e-08
1.39682e-07
2.80886e-07
4.21718e-07
5.36644e-07
6.07203e-07
6.3348e-07
6.33279e-07
6.26388e-07
6.22476e-07
6.22203e-07
6.23367e-07
6.24509e-07
6.25337e-07
6.26024e-07
6.26714e-07
6.27444e-07
6.28205e-07
6.28986e-07
6.29788e-07
6.30614e-07
6.31465e-07
6.32344e-07
6.33251e-07
6.3419e-07
6.3516e-07
6.36165e-07
6.37205e-07
6.38282e-07
6.39397e-07
6.40552e-07
6.41749e-07
6.42994e-07
6.4429e-07
6.45642e-07
6.47055e-07
6.48532e-07
6.50067e-07
6.51652e-07
6.53283e-07
6.54959e-07
6.56682e-07
6.58456e-07
6.60287e-07
6.62182e-07
6.64144e-07
6.66175e-07
6.68272e-07
6.70435e-07
6.7267e-07
6.74985e-07
6.77385e-07
6.79871e-07
6.82436e-07
6.85079e-07
6.87816e-07
6.90664e-07
6.9362e-07
6.96647e-07
6.99713e-07
7.02817e-07
7.05987e-07
7.09248e-07
7.12598e-07
7.16011e-07
7.19409e-07
7.22646e-07
7.25596e-07
7.28041e-07
7.29927e-07
7.31306e-07
7.3232e-07
7.33031e-07
7.33549e-07
7.33963e-07
7.34272e-07
7.34433e-07
7.34457e-07
7.34407e-07
7.34309e-07
7.34284e-07
7.34651e-07
7.36475e-07
7.40822e-07
7.48944e-07
7.60616e-07
7.77253e-07
7.99507e-07
8.36913e-07
9.0547e-07
1.2056e-06
3.19009e-07
9.08398e-07
5.91477e-07
5.70463e-07
7.66166e-07
5.60451e-07
6.56387e-07
7.33875e-09
1.05476e-09
1.01255e-07
2.35206e-07
3.7751e-07
5.02791e-07
5.88783e-07
6.28373e-07
6.34472e-07
6.28008e-07
6.22534e-07
6.21155e-07
6.22052e-07
6.233e-07
6.24239e-07
6.24952e-07
6.25626e-07
6.26337e-07
6.27083e-07
6.27854e-07
6.28644e-07
6.29456e-07
6.30293e-07
6.31157e-07
6.32048e-07
6.32969e-07
6.33922e-07
6.34909e-07
6.35929e-07
6.36986e-07
6.3808e-07
6.39213e-07
6.40388e-07
6.41605e-07
6.42868e-07
6.44183e-07
6.45555e-07
6.4699e-07
6.48487e-07
6.50043e-07
6.51652e-07
6.53314e-07
6.55026e-07
6.56787e-07
6.58597e-07
6.60465e-07
6.62398e-07
6.64402e-07
6.66474e-07
6.68609e-07
6.7081e-07
6.73084e-07
6.7544e-07
6.77882e-07
6.80407e-07
6.83011e-07
6.85706e-07
6.88508e-07
6.91411e-07
6.94384e-07
6.97398e-07
7.00448e-07
7.03564e-07
7.06772e-07
7.10078e-07
7.13451e-07
7.16804e-07
7.19979e-07
7.22843e-07
7.25221e-07
7.27078e-07
7.28475e-07
7.29549e-07
7.3035e-07
7.30987e-07
7.31526e-07
7.31944e-07
7.32213e-07
7.3236e-07
7.32463e-07
7.32551e-07
7.32688e-07
7.33076e-07
7.3462e-07
7.3833e-07
7.45717e-07
7.56752e-07
7.73129e-07
7.95044e-07
8.32371e-07
8.99848e-07
1.21014e-06
3.29957e-07
9.08732e-07
1.07486e-06
1.06727e-06
1.99996e-07
5.72963e-07
2.24475e-07
9.92885e-08
6.68329e-10
6.79583e-08
1.90715e-07
3.31471e-07
4.64385e-07
5.64863e-07
6.19332e-07
6.34335e-07
6.29939e-07
6.23193e-07
6.20396e-07
6.20745e-07
6.2202e-07
6.23094e-07
6.23866e-07
6.24534e-07
6.25223e-07
6.25953e-07
6.26711e-07
6.27489e-07
6.28288e-07
6.29111e-07
6.29959e-07
6.30835e-07
6.31739e-07
6.32675e-07
6.33642e-07
6.34643e-07
6.35679e-07
6.36752e-07
6.37865e-07
6.39017e-07
6.40211e-07
6.41447e-07
6.42731e-07
6.44067e-07
6.45459e-07
6.46912e-07
6.48426e-07
6.50001e-07
6.51635e-07
6.53327e-07
6.55069e-07
6.56859e-07
6.58702e-07
6.60609e-07
6.62588e-07
6.64638e-07
6.66752e-07
6.68926e-07
6.71165e-07
6.73479e-07
6.75876e-07
6.78357e-07
6.80919e-07
6.8357e-07
6.86321e-07
6.89166e-07
6.9208e-07
6.9504e-07
6.98042e-07
7.01112e-07
7.04275e-07
7.07539e-07
7.10871e-07
7.14172e-07
7.17281e-07
7.20073e-07
7.22385e-07
7.24211e-07
7.25624e-07
7.26741e-07
7.27628e-07
7.28376e-07
7.29023e-07
7.29536e-07
7.29902e-07
7.30174e-07
7.30433e-07
7.30694e-07
7.31003e-07
7.31465e-07
7.32824e-07
7.35987e-07
7.42628e-07
7.52923e-07
7.68942e-07
7.90397e-07
8.27633e-07
8.93787e-07
1.21225e-06
3.40027e-07
9.08978e-07
3.01553e-07
3.67313e-07
1.66824e-06
2.16056e-07
7.91103e-08
1.58379e-08
2.17443e-08
3.99802e-08
1.48292e-07
2.8454e-07
4.22117e-07
5.35316e-07
6.05392e-07
6.31863e-07
6.31743e-07
6.24489e-07
6.20082e-07
6.19535e-07
6.20676e-07
6.21885e-07
6.22753e-07
6.23434e-07
6.24103e-07
6.24813e-07
6.25557e-07
6.26324e-07
6.2711e-07
6.27919e-07
6.28752e-07
6.29611e-07
6.30499e-07
6.31417e-07
6.32366e-07
6.33347e-07
6.34363e-07
6.35415e-07
6.36505e-07
6.37635e-07
6.38806e-07
6.4002e-07
6.41278e-07
6.42583e-07
6.43939e-07
6.4535e-07
6.4682e-07
6.4835e-07
6.49945e-07
6.51603e-07
6.53317e-07
6.55081e-07
6.56897e-07
6.58775e-07
6.60727e-07
6.62753e-07
6.64847e-07
6.67e-07
6.69211e-07
6.71487e-07
6.7384e-07
6.76274e-07
6.78793e-07
6.81398e-07
6.84096e-07
6.86881e-07
6.89736e-07
6.92644e-07
6.95604e-07
6.98636e-07
7.0176e-07
7.04984e-07
7.08272e-07
7.11513e-07
7.1455e-07
7.17251e-07
7.19501e-07
7.21306e-07
7.22737e-07
7.23898e-07
7.2487e-07
7.25722e-07
7.2646e-07
7.27051e-07
7.2751e-07
7.27905e-07
7.28313e-07
7.2874e-07
7.29219e-07
7.29792e-07
7.31057e-07
7.33767e-07
7.39693e-07
7.49179e-07
7.6473e-07
7.85679e-07
8.22732e-07
8.87311e-07
1.21169e-06
3.52654e-07
9.0923e-07
6.16013e-07
1.75558e-05
1.05384e-05
1.21516e-06
2.88418e-07
1.36653e-08
8.47778e-09
1.43252e-08
1.08932e-07
2.37868e-07
3.76861e-07
5.00279e-07
5.85778e-07
6.25954e-07
6.32765e-07
6.26338e-07
6.20377e-07
6.18554e-07
6.19302e-07
6.20595e-07
6.21597e-07
6.22324e-07
6.2298e-07
6.23667e-07
6.24395e-07
6.25149e-07
6.25923e-07
6.26718e-07
6.27536e-07
6.28379e-07
6.2925e-07
6.30151e-07
6.31081e-07
6.32043e-07
6.33038e-07
6.34069e-07
6.35137e-07
6.36244e-07
6.37392e-07
6.38583e-07
6.39817e-07
6.41095e-07
6.42421e-07
6.43796e-07
6.45225e-07
6.46713e-07
6.48263e-07
6.49878e-07
6.51553e-07
6.53282e-07
6.55066e-07
6.56912e-07
6.5883e-07
6.60827e-07
6.62895e-07
6.65024e-07
6.67209e-07
6.69451e-07
6.71762e-07
6.74151e-07
6.76624e-07
6.79184e-07
6.81828e-07
6.84556e-07
6.87355e-07
6.90217e-07
6.93142e-07
6.96141e-07
6.99232e-07
7.02416e-07
7.05651e-07
7.08824e-07
7.11784e-07
7.14393e-07
7.16585e-07
7.18367e-07
7.19815e-07
7.21029e-07
7.2208e-07
7.23018e-07
7.23828e-07
7.24484e-07
7.25034e-07
7.25554e-07
7.26106e-07
7.26686e-07
7.27331e-07
7.28049e-07
7.29305e-07
7.31668e-07
7.36938e-07
7.45577e-07
7.60583e-07
7.80891e-07
8.17779e-07
8.808e-07
1.20449e-06
3.61266e-07
9.09507e-07
9.20991e-07
3.62586e-08
1.85414e-06
2.21189e-06
5.22201e-07
4.15813e-08
7.57959e-09
2.1081e-09
7.45047e-08
1.92823e-07
3.29602e-07
4.60139e-07
5.60085e-07
6.15677e-07
6.32248e-07
6.28512e-07
6.21395e-07
6.17959e-07
6.17969e-07
6.19221e-07
6.20377e-07
6.21193e-07
6.21854e-07
6.22518e-07
6.23225e-07
6.23966e-07
6.24728e-07
6.25509e-07
6.26312e-07
6.2714e-07
6.27994e-07
6.28877e-07
6.29789e-07
6.30731e-07
6.31706e-07
6.32716e-07
6.33762e-07
6.34846e-07
6.3597e-07
6.37136e-07
6.38345e-07
6.39598e-07
6.40896e-07
6.42242e-07
6.43638e-07
6.45087e-07
6.46594e-07
6.48164e-07
6.49794e-07
6.51483e-07
6.53229e-07
6.55037e-07
6.56916e-07
6.58873e-07
6.60905e-07
6.63003e-07
6.65157e-07
6.67367e-07
6.6964e-07
6.71987e-07
6.74415e-07
6.76927e-07
6.79522e-07
6.82194e-07
6.84943e-07
6.87763e-07
6.90656e-07
6.93627e-07
6.96686e-07
6.99827e-07
7.03006e-07
7.06105e-07
7.08982e-07
7.11516e-07
7.13654e-07
7.15417e-07
7.16878e-07
7.18128e-07
7.19251e-07
7.20261e-07
7.21127e-07
7.21841e-07
7.22485e-07
7.2313e-07
7.23814e-07
7.24539e-07
7.25349e-07
7.26226e-07
7.2753e-07
7.29657e-07
7.34375e-07
7.4217e-07
7.56556e-07
7.76152e-07
8.12758e-07
8.74665e-07
1.19245e-06
3.69285e-07
9.0976e-07
4.69897e-06
7.6456e-06
4.03259e-06
2.923e-07
3.13185e-07
3.95559e-08
5.89755e-08
2.01865e-08
4.77837e-08
1.51199e-07
2.81485e-07
4.15506e-07
5.28399e-07
6.00558e-07
6.29538e-07
6.3065e-07
6.23133e-07
6.17892e-07
6.16773e-07
6.17782e-07
6.19075e-07
6.20026e-07
6.20723e-07
6.21369e-07
6.22052e-07
6.22775e-07
6.23524e-07
6.24292e-07
6.25081e-07
6.25893e-07
6.26731e-07
6.27596e-07
6.28489e-07
6.29412e-07
6.30367e-07
6.31356e-07
6.3238e-07
6.33441e-07
6.34541e-07
6.35682e-07
6.36864e-07
6.38091e-07
6.39362e-07
6.40681e-07
6.42047e-07
6.43464e-07
6.44934e-07
6.46461e-07
6.48048e-07
6.49694e-07
6.514e-07
6.53168e-07
6.55003e-07
6.56913e-07
6.58899e-07
6.60954e-07
6.63072e-07
6.65247e-07
6.67483e-07
6.69789e-07
6.72174e-07
6.7464e-07
6.77186e-07
6.79809e-07
6.82511e-07
6.85293e-07
6.88153e-07
6.91093e-07
6.94117e-07
6.97216e-07
7.00331e-07
7.0335e-07
7.06142e-07
7.08599e-07
7.10682e-07
7.12426e-07
7.13903e-07
7.15205e-07
7.16391e-07
7.1745e-07
7.18353e-07
7.1913e-07
7.19868e-07
7.20634e-07
7.21448e-07
7.22304e-07
7.23267e-07
7.24309e-07
7.25718e-07
7.27714e-07
7.31991e-07
7.38998e-07
7.52727e-07
7.71517e-07
8.07805e-07
8.68989e-07
1.17587e-06
3.72827e-07
3.68038e-07
2.00404e-06
1.08393e-06
9.12726e-07
1.12612e-06
2.02673e-08
1.97792e-08
1.87486e-08
2.5816e-08
1.14328e-07
2.33763e-07
3.67432e-07
4.91428e-07
5.80675e-07
6.24186e-07
6.32267e-07
6.25398e-07
6.18408e-07
6.15833e-07
6.16336e-07
6.1769e-07
6.18804e-07
6.19577e-07
6.2022e-07
6.20877e-07
6.21579e-07
6.22314e-07
6.23069e-07
6.23844e-07
6.2464e-07
6.25462e-07
6.26309e-07
6.27183e-07
6.28087e-07
6.29022e-07
6.2999e-07
6.30991e-07
6.32029e-07
6.33105e-07
6.34221e-07
6.35377e-07
6.36576e-07
6.3782e-07
6.39111e-07
6.40449e-07
6.41835e-07
6.43273e-07
6.44764e-07
6.46312e-07
6.47918e-07
6.49583e-07
6.51309e-07
6.53101e-07
6.54962e-07
6.56896e-07
6.58902e-07
6.60973e-07
6.63107e-07
6.65305e-07
6.67573e-07
6.69916e-07
6.72337e-07
6.74835e-07
6.77412e-07
6.80071e-07
6.82813e-07
6.85637e-07
6.88541e-07
6.91526e-07
6.94574e-07
6.97624e-07
7.00563e-07
7.03267e-07
7.05647e-07
7.07681e-07
7.09409e-07
7.10906e-07
7.12254e-07
7.13486e-07
7.14579e-07
7.15513e-07
7.16354e-07
7.17195e-07
7.18076e-07
7.19007e-07
7.19986e-07
7.21092e-07
7.22303e-07
7.23849e-07
7.2581e-07
7.29777e-07
7.36092e-07
7.49149e-07
7.67102e-07
8.02896e-07
8.64371e-07
1.15713e-06
3.71913e-07
4.11729e-07
1.50119e-06
9.46182e-07
5.71506e-08
7.38281e-09
8.14604e-09
6.99602e-09
7.82143e-09
8.07307e-08
1.8739e-07
3.17912e-07
4.50721e-07
5.56439e-07
6.15675e-07
6.32614e-07
6.27735e-07
6.19429e-07
6.15256e-07
6.1499e-07
6.1626e-07
6.1752e-07
6.18401e-07
6.19066e-07
6.19703e-07
6.20382e-07
6.21099e-07
6.21841e-07
6.22602e-07
6.23383e-07
6.24188e-07
6.25016e-07
6.25871e-07
6.26756e-07
6.27671e-07
6.28617e-07
6.29596e-07
6.30612e-07
6.31664e-07
6.32755e-07
6.33884e-07
6.35056e-07
6.36272e-07
6.37533e-07
6.38842e-07
6.40199e-07
6.41605e-07
6.43064e-07
6.44576e-07
6.46145e-07
6.47772e-07
6.49459e-07
6.51208e-07
6.53022e-07
6.54906e-07
6.56859e-07
6.5888e-07
6.60969e-07
6.63125e-07
6.65352e-07
6.67653e-07
6.70029e-07
6.72481e-07
6.75013e-07
6.77628e-07
6.80329e-07
6.8311e-07
6.85971e-07
6.8891e-07
6.91905e-07
6.94885e-07
6.97739e-07
7.00357e-07
7.02666e-07
7.04654e-07
7.0637e-07
7.07887e-07
7.09275e-07
7.10541e-07
7.11651e-07
7.12617e-07
7.13527e-07
7.14467e-07
7.15457e-07
7.16493e-07
7.17591e-07
7.18836e-07
7.20205e-07
7.21909e-07
7.23915e-07
7.27703e-07
7.33439e-07
7.45874e-07
7.62981e-07
7.98175e-07
8.60838e-07
1.13933e-06
3.6779e-07
1.90669e-07
1.38422e-09
4.81111e-10
9.03798e-10
1.61261e-08
4.68143e-08
1.42357e-07
2.69953e-07
4.08803e-07
5.28187e-07
6.02778e-07
6.30284e-07
6.29301e-07
6.20706e-07
6.15127e-07
6.13903e-07
6.14881e-07
6.16197e-07
6.17184e-07
6.17895e-07
6.18528e-07
6.19186e-07
6.19885e-07
6.20612e-07
6.21358e-07
6.22125e-07
6.22911e-07
6.2372e-07
6.24556e-07
6.25421e-07
6.26315e-07
6.27239e-07
6.28197e-07
6.2919e-07
6.30219e-07
6.31284e-07
6.32387e-07
6.33532e-07
6.3472e-07
6.35952e-07
6.3723e-07
6.38555e-07
6.3993e-07
6.41356e-07
6.42836e-07
6.4437e-07
6.4596e-07
6.47609e-07
6.49318e-07
6.51089e-07
6.52925e-07
6.54829e-07
6.56801e-07
6.58842e-07
6.60954e-07
6.63138e-07
6.65395e-07
6.67725e-07
6.70131e-07
6.72617e-07
6.75187e-07
6.7784e-07
6.80573e-07
6.83385e-07
6.86273e-07
6.89209e-07
6.92116e-07
6.94885e-07
6.97421e-07
6.99663e-07
7.0161e-07
7.03314e-07
7.04852e-07
7.0627e-07
7.07549e-07
7.08664e-07
7.09664e-07
7.10654e-07
7.11695e-07
7.12781e-07
7.13912e-07
7.15116e-07
7.16487e-07
7.1801e-07
7.1988e-07
7.21999e-07
7.25743e-07
7.3104e-07
7.42936e-07
7.59205e-07
7.93753e-07
8.58486e-07
1.12348e-06
3.60044e-07
1.29782e-10
3.01627e-11
2.90435e-10
2.42166e-09
1.58439e-08
9.86273e-08
2.26794e-07
3.68796e-07
4.95922e-07
5.83093e-07
6.22794e-07
6.28732e-07
6.21839e-07
6.1551e-07
6.13254e-07
6.13689e-07
6.14892e-07
6.1593e-07
6.16694e-07
6.17341e-07
6.1799e-07
6.18673e-07
6.19384e-07
6.20115e-07
6.20867e-07
6.21633e-07
6.22423e-07
6.2324e-07
6.24084e-07
6.24955e-07
6.25858e-07
6.26795e-07
6.27765e-07
6.28769e-07
6.29809e-07
6.30887e-07
6.32005e-07
6.33165e-07
6.34367e-07
6.35614e-07
6.36908e-07
6.3825e-07
6.39644e-07
6.41089e-07
6.42589e-07
6.44143e-07
6.45754e-07
6.47424e-07
6.49155e-07
6.50949e-07
6.52807e-07
6.54732e-07
6.56727e-07
6.58793e-07
6.60932e-07
6.63142e-07
6.65425e-07
6.67783e-07
6.70222e-07
6.72743e-07
6.75345e-07
6.78026e-07
6.80787e-07
6.83622e-07
6.86493e-07
6.89322e-07
6.92007e-07
6.94466e-07
6.96643e-07
6.98548e-07
7.00241e-07
7.01795e-07
7.03229e-07
7.04504e-07
7.05621e-07
7.0667e-07
7.07745e-07
7.08875e-07
7.10046e-07
7.11267e-07
7.12578e-07
7.1407e-07
7.15731e-07
7.17768e-07
7.20038e-07
7.23846e-07
7.28876e-07
7.40363e-07
7.55852e-07
7.89751e-07
8.57148e-07
1.1115e-06
3.51634e-07
2.20952e-12
3.83025e-11
3.66155e-10
2.075e-09