/*--------------------------------*- C++ -*----------------------------------*\
  =========                 |
  \\      /  F ield         | OpenFOAM: The Open Source CFD Toolbox
   \\    /   O peration     | Website:  https://openfoam.org
    \\  /    A nd           | Version:  9
     \\/     M anipulation  |
\*---------------------------------------------------------------------------*/
FoamFile
{
    format      ascii;
    class       volScalarField;
    location    "3000";
    object      omega;
}
// * * * * * * * * * * * * * * * * * * * * * * * * * * * * * * * * * * * * * //

dimensions      [0 0 -1 0 0 0 0];

internalField   nonuniform List<scalar> 
13538
(
10.1653
0.336218
0.00685229
0.0221975
0.224548
0.719197
1.08718
1.25452
1.32554
1.38316
1.45431
1.53696
1.62549
1.71828
1.81574
1.91857
2.02715
2.14178
2.26281
2.39059
2.52549
2.66792
2.81829
2.97707
3.14468
3.32161
3.50838
3.70547
3.91348
4.13302
4.36469
4.60911
4.86699
5.13902
5.42597
5.72868
6.04781
6.38432
6.73901
7.11286
7.5069
7.92211
8.3595
8.82025
9.30543
9.81614
10.3537
10.9195
11.5148
12.1407
12.7988
13.4904
14.2171
14.9804
15.7816
16.6224
17.5043
18.4296
19.3999
20.4163
21.4803
22.5939
23.7583
24.9754
26.2468
27.575
28.9626
30.4112
31.9215
33.4943
35.1326
36.8394
38.6184
40.4719
42.4128
44.4655
46.6513
48.9841
51.4721
54.1131
56.8986
59.8208
62.8762
66.0643
69.3719
72.7476
76.1313
79.4942
82.8589
86.2637
89.7184
93.1958
96.6519
99.9839
103.125
106.362
112.263
129.11
156.739
13.0372
0.950117
0.00914274
0.00265592
0.200604
0.663852
1.06216
1.26539
1.35198
1.41119
1.48065
1.56308
1.65278
1.74703
1.8459
1.95008
2.06002
2.17608
2.29856
2.42783
2.56428
2.70828
2.86026
3.02065
3.1899
3.36849
3.55693
3.75574
3.96548
4.18671
4.42003
4.6661
4.92558
5.19916
5.48759
5.79161
6.11205
6.4497
6.80547
7.18024
7.57493
7.99056
8.42812
8.88871
9.37345
9.88343
10.4199
10.9841
11.5771
12.2004
12.8553
13.5431
14.2653
15.0232
15.8185
16.6525
17.5266
18.4424
19.4014
20.405
21.4552
22.5532
23.7009
24.8993
26.1504
27.4562
28.8195
30.2413
31.7226
33.2645
34.8695
36.5395
38.2795
40.0934
41.9912
43.9963
46.1299
48.4096
50.8397
53.4185
56.1419
58.9998
61.991
65.1151
68.3651
71.705
75.0721
78.4284
81.7871
85.183
88.644
92.1518
95.6709
99.1059
102.382
105.656
111.108
125.645
147.596
15.4448
0.474765
0.0575145
0.00513419
0.115428
0.530999
0.969546
1.22626
1.33736
1.39817
1.46254
1.54137
1.62955
1.72285
1.82058
1.92338
2.03184
2.14634
2.26719
2.39474
2.52937
2.67147
2.82144
2.97972
3.14676
3.32303
3.50903
3.70527
3.91231
4.13072
4.3611
4.60408
4.86032
5.13053
5.41541
5.71574
6.03233
6.36598
6.71755
7.08795
7.47808
7.88895
8.3216
8.77704
9.25644
9.76089
10.2916
10.8498
11.4366
12.0535
12.7018
13.3829
14.0981
14.8488
15.6365
16.4628
17.3291
18.2372
19.1883
20.184
21.2261
22.3159
23.4554
24.6457
25.8885
27.1853
28.5376
29.9467
31.4149
32.9425
34.532
36.1865
37.9093
39.7048
41.5834
43.5655
45.6756
47.9303
50.3318
52.8772
55.5645
58.3889
61.346
64.4358
67.6562
70.9828
74.3568
77.7302
81.1041
84.5166
87.9979
91.543
95.1208
98.6426
102.033
105.37
110.63
123.676
140.798
17.5117
0.578177
0.0922653
0.00884024
0.0657768
0.42131
0.875729
1.18303
1.32654
1.39492
1.45575
1.53068
1.61726
1.71004
1.80726
1.90932
2.01692
2.1305
2.25038
2.37691
2.51044
2.65137
2.80011
2.95708
3.12272
3.29751
3.48194
3.67652
3.8818
4.09834
4.32674
4.56762
4.82164
5.08948
5.37187
5.66952
5.98326
6.31391
6.66234
7.02941
7.41605
7.82321
8.25194
8.70319
9.17815
9.6779
10.2037
10.7567
11.338
11.9491
12.5913
13.2659
13.9743
14.7179
15.4982
16.3166
17.1746
18.074
19.016
20.0023
21.0343
22.1138
23.2425
24.4217
25.653
26.9379
28.2785
29.6759
31.1317
32.6475
34.2246
35.8646
37.5701
39.345
41.2015
43.1611
45.2448
47.4693
49.8359
52.3408
54.9861
57.7659
60.6765
63.72
66.8986
70.1962
73.5648
76.9512
80.3424
83.771
87.2708
90.8493
94.4834
98.0953
101.611
105.021
110.102
121.887
135.344
19.3427
0.72592
0.0775122
0.00423127
0.0268089
0.317308
0.770234
1.12405
1.30621
1.38802
1.4471
1.51746
1.60149
1.69336
1.78993
1.89112
1.99766
2.1101
2.22879
2.35405
2.48624
2.62576
2.77299
2.92837
3.09234
3.26535
3.44791
3.64051
3.8437
4.05804
4.2841
4.52252
4.77395
5.03905
5.31853
5.61309
5.92356
6.25075
6.59555
6.95886
7.34153
7.74452
8.16884
8.6155
9.08558
9.58021
10.1006
10.6479
11.2233
11.8282
12.4639
13.1316
13.8328
14.569
15.3414
16.1517
17.0013
17.8917
18.8245
19.8012
20.8235
21.8927
23.0106
24.1788
25.3987
26.6722
28.0007
29.3851
30.8278
32.3301
33.8939
35.5208
37.2132
38.9756
40.8206
42.7679
44.8345
47.035
49.3718
51.8428
54.4493
57.1854
60.0502
63.0475
66.1798
69.4398
72.7938
76.1908
79.599
83.0452
86.5679
90.1822
93.8764
97.5735
101.214
104.705
109.67
120.454
131.378
20.987
1.26958
0.137356
0.000587947
0.00713303
0.22826
0.660112
1.05198
1.27714
1.37901
1.43948
1.50526
1.58596
1.67648
1.77238
1.87276
1.97827
2.08956
2.20703
2.33102
2.46186
2.59994
2.74566
2.89944
3.06171
3.23293
3.41358
3.60418
3.80525
4.01734
4.24104
4.47696
4.72575
4.98807
5.26459
5.55601
5.86314
6.18679
6.52783
6.88718
7.26575
7.66446
8.08429
8.5262
8.99132
9.48068
9.99552
10.537
11.1063
11.7047
12.3336
12.9944
13.6881
14.4165
15.1809
15.9827
16.8234
17.7046
18.6279
19.5946
20.6065
21.6649
22.7718
23.9283
25.1364
26.3973
27.7131
29.085
30.514
32.0026
33.5522
35.1647
36.8427
38.5906
40.4209
42.3537
44.4057
46.5919
48.9099
51.3554
53.9292
56.6277
59.4527
62.403
65.4856
68.7042
72.0342
75.4248
78.8435
82.3059
85.8506
89.5077
93.2582
97.0433
100.814
104.41
109.313
119.241
127.876
22.4803
2.09513
0.0112921
0.00757151
0.00465861
0.156677
0.549199
0.967145
1.23707
1.36551
1.43154
1.49349
1.57009
1.65865
1.75372
1.85331
1.95778
2.06787
2.18406
2.3067
2.43613
2.57271
2.71683
2.86893
3.02942
3.19876
3.37742
3.56592
3.76476
3.97451
4.19573
4.42904
4.67508
4.93448
5.20791
5.49606
5.79972
6.11965
6.45675
6.81194
7.18618
7.58036
7.99544
8.43242
8.89234
9.37628
9.88537
10.4208
10.9837
11.5755
12.1974
12.8507
13.5368
14.2571
15.013
15.8061
16.6377
17.5095
18.4227
19.379
20.3801
21.4275
22.523
23.6677
24.8634
26.1116
27.4143
28.7722
30.1879
31.6623
33.198
34.7956
36.4588
38.1918
40.0081
41.9265
43.9642
46.1324
48.4282
50.8496
53.3991
56.0724
58.8658
61.7766
64.8153
67.9931
71.2916
74.6726
78.094
81.5645
85.1274
88.8159
92.6285
96.5084
100.414
104.123
109.008
118.24
125.404
23.8483
0.246076
0.0586678
0.00124616
0.00661829
0.102296
0.442578
0.871683
1.18496
1.34591
1.42258
1.48233
1.55434
1.64023
1.73419
1.83298
1.93642
2.04528
2.16014
2.28139
2.40934
2.54435
2.68683
2.83717
2.99581
3.1632
3.33981
3.52612
3.72266
3.92997
4.14862
4.37921
4.62238
4.87877
5.14901
5.43378
5.73384
6.04996
6.38299
6.73386
7.10353
7.49296
7.90309
8.33489
8.78942
9.26766
9.77078
10.2999
10.8563
11.4412
12.0558
12.7015
13.3797
14.0917
14.8389
15.6229
16.4449
17.3067
18.2097
19.1556
20.1456
21.1814
22.2649
23.397
24.58
25.815
27.104
28.4483
29.8493
31.3092
32.8302
34.4131
36.0604
37.7784
39.5808
41.4856
43.5079
45.6577
47.9315
50.3263
52.8484
55.4924
58.257
61.1412
64.1506
67.2927
70.563
73.9292
77.3486
80.8253
84.393
88.1121
91.9809
95.9523
100.002
103.848
108.775
117.386
122.893
25.1146
0.304277
0.0298269
0.00280479
0.00377105
0.061357
0.344471
0.768601
1.12029
1.31839
1.41137
1.4715
1.53889
1.62134
1.71375
1.81167
1.91412
2.02173
2.13521
2.25499
2.38141
2.51481
2.65556
2.80409
2.96081
3.12617
3.30062
3.48466
3.67881
3.8836
4.09958
4.32735
4.56754
4.82077
5.08769
5.36897
5.66535
5.97757
6.30643
6.65284
7.0178
7.40227
7.80718
8.23359
8.68246
9.1548
9.65176
10.1744
10.724
11.3017
11.9089
12.5467
13.2166
13.92
14.6583
15.4329
16.2451
17.0967
17.989
18.9237
19.9024
20.9263
21.9971
23.1163
24.286
25.5075
26.7825
28.1123
29.4987
30.9442
32.4502
34.0176
35.6494
37.3514
39.1384
41.0278
43.0361
45.1665
47.4157
49.7838
52.2769
54.8922
57.6266
60.4797
63.4599
66.5791
69.8336
73.1891
76.607
80.0849
83.6575
87.3957
91.3102
95.3736
99.5679
103.57
108.592
116.66
121.59
26.2892
0.358769
0.0428481
0.0041044
0.00177785
0.0317068
0.257426
0.66155
1.04342
1.28136
1.39651
1.46054
1.52389
1.6022
1.69249
1.78938
1.89084
1.99721
2.10926
2.22752
2.35234
2.48405
2.62302
2.76966
2.92438
3.08763
3.25985
3.44154
3.63319
3.83535
4.04855
4.2734
4.51049
4.76045
5.02392
5.30161
5.5942
5.90244
6.22706
6.56897
6.92908
7.3084
7.70791
8.12859
8.57155
9.03774
9.52828
10.0442
10.5867
11.157
11.7565
12.3862
13.0477
13.7422
14.4712
15.236
16.0381
16.8791
17.7605
18.6838
19.6504
20.662
21.72
22.826
23.9822
25.1894
26.4496
27.7649
29.1366
30.5666
32.0571
33.6087
35.2241
36.9099
38.6813
40.5556
42.5465
44.6559
46.8801
49.2211
51.685
54.2701
56.9728
59.7949
62.744
65.8367
69.0702
72.4258
75.8558
79.3437
82.9213
86.669
90.6197
94.7628
99.1006
103.274
108.465
116.023
120.37
27.39
0.432856
0.0277243
0.0124998
0.00266463
0.0118513
0.183123
0.554378
0.955604
1.2336
1.37644
1.44874
1.50933
1.58301
1.6705
1.76608
1.86654
1.97168
2.08227
2.19895
2.3221
2.45205
2.58918
2.73385
2.8865
3.04755
3.21746
3.3967
3.58577
3.7852
3.99553
4.21734
4.45123
4.69779
4.95768
5.23162
5.52033
5.82449
6.1448
6.48211
6.83736
7.21144
7.60538
8.02019
8.45695
8.91669
9.40053
9.90946
10.4447
11.0074
11.5988
12.2202
12.8728
13.5581
14.2775
15.0325
15.8241
16.6543
17.5242
18.4357
19.39
20.389
21.4337
22.526
23.6677
24.8608
26.1059
27.4057
28.7623
30.1773
31.6518
33.1864
34.7841
36.4527
38.2084
40.0669
42.0392
44.1271
46.3245
48.6375
51.0718
53.6255
56.2951
59.0849
62.0052
65.0665
68.2789
71.6238
75.0618
78.5727
82.1675
85.9322
89.9108
94.1226
98.603
102.96
108.371
115.47
119.267
28.4168
0.672716
0.0366413
0.0101642
0.00180035
0.00400217
0.123183
0.450776
0.858764
1.17438
1.34958
1.43509
1.49507
1.56399
1.64793
1.74178
1.84118
1.94511
2.05422
2.16925
2.29067
2.41881
2.55401
2.69666
2.84715
3.00594
3.17345
3.35016
3.53656
3.73315
3.9405
4.15917
4.38973
4.63278
4.88898
5.15906
5.44372
5.74366
6.05957
6.39224
6.74253
7.11134
7.49958
7.90837
8.33881
8.79189
9.26875
9.7704
10.2981
10.8528
11.436
12.0487
12.6923
13.3682
14.0776
14.8221
15.603
16.4219
17.2802
18.1795
19.1212
20.1069
21.1379
22.2161
23.3436
24.522
25.752
27.036
28.3766
29.7756
31.2337
32.7507
34.3303
35.9808
37.719
39.5609
41.5145
43.5782
45.7495
48.0335
50.4369
52.9579
55.5946
58.351
61.2385
64.272
67.4562
70.7857
74.2279
77.7577
81.3806
85.1705
89.1784
93.4545
98.0635
102.612
108.31
114.97
118.895
29.3841
1.22478
0.0955096
0.0129662
0.000724902
0.00636251
0.0782608
0.354289
0.755536
1.10354
1.31439
1.41841
1.48078
1.54531
1.62501
1.71657
1.81473
1.91747
2.02511
2.13846
2.25808
2.38434
2.51755
2.6581
2.80638
2.96281
3.12784
3.30194
3.48557
3.67925
3.88352
4.09894
4.32608
4.5655
4.81788
5.08397
5.36444
5.65999
5.97132
6.29924
6.64451
7.00796
7.39053
7.79325
8.21718
8.66339
9.13304
9.62716
10.1469
10.6935
11.268
11.8719
12.506
13.1721
13.8714
14.6053
15.3751
16.1824
17.0285
17.9152
18.8437
19.8157
20.833
21.8972
23.0101
24.1729
25.387
26.6551
27.9793
29.3616
30.8019
32.3004
33.8612
35.4935
37.2134
39.0371
40.9698
43.0091
45.1525
47.4081
49.7809
52.2687
54.8711
57.5935
60.4477
63.4466
66.6015
69.9107
73.3505
76.897
80.544
84.3642
88.4116
92.753
97.4822
102.222
108.279
114.504
118.426
30.2913
1.62739
0.101374
0.00273477
0.00088972
0.00484269
0.045942
0.268175
0.649084
1.02149
1.26951
1.3973
1.46588
1.52708
1.602
1.6906
1.78725
1.88878
1.99497
2.10661
2.22437
2.34868
2.47984
2.61822
2.76422
2.91823
3.08071
3.25211
3.43289
3.62357
3.82467
4.03675
4.26034
4.49603
4.74449
5.00647
5.2826
5.5736
5.8802
6.20318
6.54329
6.90127
7.27806
7.67463
8.09204
8.53132
8.99358
9.47993
9.99157
10.5297
11.0954
11.6899
12.3145
12.9705
13.6591
14.382
15.1402
15.9356
16.7695
17.6433
18.5582
19.5162
20.519
21.5687
22.667
23.8145
25.0123
26.2632
27.5707
28.9355
30.3571
31.8362
33.3766
34.9902
36.6915
38.4961
40.407
42.4211
44.5349
46.7611
49.1021
51.5549
54.122
56.8107
59.6323
62.5963
65.7173
69.0004
72.4298
75.9868
79.6556
83.5043
87.5901
92.0023
96.8523
101.793
108.268
114.088
118.628
31.1512
1.87785
0.197006
0.0196126
0.000628216
0.000921174
0.0237238
0.19421
0.542938
0.929425
1.21385
1.37021
1.44955
1.50925
1.57919
1.66409
1.7588
1.85906
1.96382
2.07374
2.1896
2.31189
2.44094
2.5771
2.72074
2.87227
3.03212
3.20074
3.3786
3.56619
3.76404
3.97268
4.19263
4.42449
4.66894
4.92667
5.19834
5.48461
5.78629
6.10413
6.43883
6.79119
7.16209
7.5525
7.96333
8.3956
8.85038
9.32883
9.83216
10.3615
10.9182
11.5032
12.1178
12.7633
13.4411
14.1525
14.899
15.682
16.503
17.3635
18.2646
19.2082
20.1966
21.2314
22.3145
23.446
24.6268
25.8605
27.15
28.4965
29.8984
31.357
32.8771
34.4706
36.1539
37.9386
39.8249
41.8115
43.8969
46.0914
48.399
50.8187
53.3501
56.0031
58.7882
61.7184
64.8011
68.0533
71.4673
75.0279
78.7168
82.5919
86.7069
91.1848
96.1565
101.301
108.261
113.74
119.192
31.9648
2.10468
0.144912
0.0159465
0.000425256
9.34484e-05
0.00848256
0.133098
0.440761
0.829363
1.14685
1.33558
1.43066
1.49156
1.55679
1.63729
1.72952
1.82832
1.93168
2.0399
2.15382
2.27404
2.40092
2.53479
2.67601
2.82499
2.98215
3.14792
3.32278
3.5072
3.7017
3.90681
4.12303
4.35094
4.59128
4.84468
5.11174
5.39317
5.68977
6.00227
6.33134
6.67787
7.04269
7.42674
7.83093
8.25614
8.7034
9.17385
9.66879
10.1893
10.7366
11.3119
11.9162
12.551
13.2175
13.9173
14.6515
15.4219
16.2299
17.0765
17.9634
18.8923
19.8657
20.8857
21.9533
23.0682
24.2316
25.4467
26.7175
28.0444
29.4256
30.8626
32.3618
33.9359
35.5995
37.3638
39.2255
41.1832
43.2381
45.402
47.675
50.0584
52.5539
55.1705
57.9201
60.8095
63.855
67.0707
70.461
74.0195
77.7184
81.6184
85.7659
90.3041
95.3897
100.74
108.243
113.501
119.315
32.7299
2.43413
0.215788
0.0219271
0.00194022
0.000491577
0.00104046
0.0850654
0.345845
0.724232
1.06868
1.29193
1.40782
1.47347
1.53493
1.6105
1.69956
1.79663
1.89856
2.00511
2.11708
2.23517
2.35981
2.49134
2.63008
2.77645
2.93084
3.0937
3.26547
3.44664
3.63772
3.83921
4.0516
4.2755
4.51163
4.76056
5.0229
5.29937
5.59075
5.89775
6.22102
6.56147
6.92002
7.29753
7.69481
8.11277
8.55242
9.01484
9.50126
10.0128
10.5507
11.1159
11.7099
12.3338
12.9888
13.6764
14.3981
15.1555
15.9499
16.7826
17.6548
18.5686
19.5268
20.5315
21.583
22.6805
23.8254
25.022
26.2735
27.5795
28.9389
30.3538
31.8313
33.3857
35.0297
36.7714
38.606
40.5338
42.559
44.6901
46.9279
49.2739
51.7323
54.3129
57.0229
59.8744
62.8776
66.0539
69.4158
72.9616
76.6701
80.5896
84.7628
89.3536
94.5338
100.098
108.18
113.406
120.261
33.4598
2.69919
0.243981
0.00526503
0.000463776
0.000514447
0.00482937
0.0504844
0.261186
0.617567
0.980353
1.23803
1.37943
1.45412
1.51356
1.58398
1.66915
1.76404
1.86447
1.96938
2.07939
2.19531
2.31766
2.44678
2.58299
2.72668
2.87825
3.03812
3.20674
3.38458
3.57216
3.76994
3.9784
4.1982
4.43002
4.67438
4.93188
5.20329
5.48933
5.79066
6.10799
6.44221
6.79425
7.16497
7.55517
7.96567
8.39753
8.85178
9.32964
9.83208
10.3603
10.9155
11.4988
12.1114
12.7548
13.4303
14.1391
14.8833
15.6638
16.482
17.3391
18.2378
19.1805
20.1694
21.2038
22.2832
23.4086
24.5855
25.8166
27.1013
28.4381
29.831
31.2872
32.8208
34.4442
36.1621
37.9692
39.866
41.8599
43.9573
46.16
48.4681
50.8891
53.4312
56.1012
58.9096
61.8702
65.0039
68.3286
71.8531
75.5623
79.4987
83.6937
88.3295
93.5986
99.3496
108.041
113.515
120.618
34.1476
2.97602
0.00744886
0.00145006
0.000533908
0.00015822
0.00218604
0.0270371
0.188481
0.512391
0.883222
1.1731
1.34389
1.43242
1.49243
1.55796
1.63853
1.73068
1.82942
1.9327
2.04079
2.15452
2.27451
2.40116
2.53478
2.67574
2.82441
2.98123
3.14663
3.32108
3.50507
3.69905
3.90351
4.11913
4.34654
4.58622
4.83879
5.10503
5.38562
5.68116
5.99239
6.32024
6.66561
7.02929
7.41211
7.81491
8.23879
8.68474
9.15378
9.647
10.1654
10.7102
11.2827
11.8842
12.5159
13.179
13.8748
14.6053
15.3715
16.1749
17.0168
17.8998
18.8269
19.7991
20.8158
21.8758
22.9818
24.1387
25.3485
26.6106
27.9248
29.2945
30.7287
32.2418
33.8451
35.5369
37.313
39.1782
41.14
43.204
45.3691
47.6401
50.0224
52.5249
55.1517
57.9166
60.8307
63.9184
67.2019
70.7007
74.4017
78.3466
82.5584
87.2347
92.5719
98.5037
107.785
113.837
121.901
34.8008
3.31878
0.276616
0.00152242
0.000575989
1.63938e-05
0.000412662
0.0107969
0.126548
0.409039
0.777537
1.09657
1.30007
1.40735
1.4711
1.53254
1.60797
1.6967
1.79345
1.89509
2.00128
2.11281
2.23041
2.35453
2.4855
2.62366
2.76938
2.92308
3.0852
3.25618
3.43651
3.6266
3.82697
4.03835
4.26125
4.49613
4.74369
5.00466
5.27968
5.56929
5.87432
6.19572
6.53426
6.89075
7.26597
7.66084
8.07645
8.5138
8.97389
9.45756
9.96592
10.5002
11.0618
11.6519
12.2716
12.9222
13.6049
14.3215
15.0732
15.8614
16.6877
17.555
18.4657
19.4209
20.4184
21.4585
22.5442
23.6805
24.8687
26.108
27.3982
28.7455
30.1582
31.65
33.229
34.8931
36.6391
38.4731
40.4019
42.4301
44.5579
46.7908
49.1337
51.5937
54.1783
56.8949
59.7618
62.8026
66.0394
69.5
73.1821
77.1345
81.355
86.0652
91.4589
97.5495
107.38
114.381
122.767
35.4234
0.40244
0.0162364
0.00325252
0.000691334
2.7352e-05
0.000307321
0.00239317
0.0720317
0.304084
0.661488
1.0079
1.24756
1.37826
1.44907
1.50763
1.57765
1.66229
1.75664
1.85655
1.96088
2.07022
2.18538
2.30693
2.43519
2.5705
2.71321
2.86374
3.0225
3.18995
3.36655
3.55266
3.7489
3.95595
4.17424
4.40423
4.6467
4.90232
5.17161
5.4552
5.75395
6.06875
6.40033
6.74946
7.11693
7.50366
7.9108
8.33932
8.79011
9.26402
9.76212
10.2857
10.8361
11.4145
12.0221
12.66
13.3294
14.032
14.7689
15.5415
16.3518
17.2031
18.0974
19.0346
20.0123
21.0316
22.0968
23.2123
24.3782
25.5937
26.8606
28.1845
29.5744
31.0445
32.5997
34.2337
35.9475
37.7485
39.6444
41.6364
43.7267
45.9199
48.2234
50.6399
53.177
55.8481
58.6639
61.6547
64.8386
68.2567
71.9098
75.857
80.0837
84.8222
90.2536
96.4957
106.78
115.09
124.042
0.869334
0.0271612
0.00385994
0.000946495
8.05133e-05
1.30876e-06
0.00250996
0.0260629
0.197238
0.534768
0.906976
1.18609
1.34454
1.42571
1.48301
1.54773
1.62769
1.71913
1.81712
1.91961
2.02678
2.1395
2.25841
2.38391
2.51631
2.65597
2.80327
2.95861
3.12247
3.29526
3.47732
3.66939
3.87204
4.08558
4.31061
4.5479
4.79804
5.0615
5.33896
5.63136
5.93947
6.26396
6.60557
6.96516
7.34367
7.74217
8.1616
8.6028
9.06668
9.55427
10.0669
10.6059
11.1725
11.7676
12.3926
13.0484
13.7366
14.4583
15.2152
16.0096
16.8446
17.7217
18.6397
19.5968
20.5953
21.6402
22.7344
23.8774
25.0688
26.3112
27.612
28.9799
30.4273
31.9558
33.5584
35.2391
37.0073
38.8691
40.8232
42.8753
45.029
47.29
49.6626
52.1521
54.7735
57.5392
60.4747
63.6058
66.9729
70.5892
74.5196
78.7469
83.5059
88.9629
95.3378
105.977
115.846
125.787
0.104117
0.00581819
0.00122841
0.000177663
0.000258346
0.00175414
0.0188099
0.109358
0.410753
0.796658
1.11341
1.30365
1.39972
1.45837
1.51837
1.59318
1.68109
1.77687
1.87747
1.98252
2.09279
2.20903
2.33171
2.46116
2.59771
2.74172
2.8936
3.0538
3.2227
3.40066
3.58852
3.78667
3.99537
4.21538
4.44745
4.69199
4.94948
5.22075
5.5067
5.80801
6.12524
6.45922
6.8108
7.18094
7.57071
7.98088
8.41229
8.8658
9.34271
9.84421
10.3716
10.926
11.5084
12.12
12.762
13.4355
14.1418
14.8826
15.661
16.4796
17.3387
18.2368
19.1724
20.1499
21.1747
22.2472
23.3664
24.5332
25.752
27.029
28.3739
29.798
31.2978
32.867
34.5147
36.25
38.0759
39.993
42.0062
44.12
46.3369
48.6612
51.1023
53.6727
56.3868
59.2693
62.3408
65.6526
69.2218
73.1235
77.3391
82.1172
87.5904
94.0882
104.965
116.504
127.752
0.000433842
0.0014811
0.0150898
0.0342114
0.0987479
0.330243
0.686488
1.02267
1.24788
1.36759
1.43321
1.4901
1.55923
1.64277
1.73586
1.83448
1.93745
2.0453
2.15884
2.27865
2.4051
2.53848
2.67916
2.82752
2.98402
3.14894
3.32278
3.50642
3.69992
3.90371
4.11869
4.34544
4.58423
4.83568
5.10074
5.38013
5.67446
5.98434
6.31059
6.65407
7.01576
7.39665
7.79735
8.21874
8.66186
9.12788
9.61809
10.1336
10.6755
11.2449
11.8427
12.4705
13.1291
13.8197
14.5444
15.3067
16.1084
16.9489
17.8259
18.74
19.6971
20.7013
21.7511
22.8459
23.9878
25.1825
26.4358
27.7577
29.1568
30.6252
32.1608
33.7754
35.478
37.2674
39.1463
41.1196
43.1914
45.3629
47.6393
50.0304
52.5483
55.2074
58.0308
61.0439
64.2943
67.8099
71.6772
75.8671
80.6547
86.1302
92.7526
103.773
116.894
130.25
0.0561977
0.173938
0.236318
0.256892
0.353578
0.593394
0.903158
1.16294
1.32219
1.4064
1.4638
1.52667
1.6045
1.69414
1.7906
1.89155
1.99702
2.10786
2.22477
2.34815
2.47833
2.61562
2.76041
2.91314
3.07402
3.24381
3.42314
3.61184
3.81072
4.02066
4.24193
4.47485
4.72026
4.97905
5.25179
5.53901
5.84141
6.15981
6.49512
6.84827
7.22009
7.61117
8.02246
8.45501
8.91009
9.38882
9.89224
10.4215
10.9775
11.5614
12.1745
12.8177
13.4923
14.2011
14.9473
15.7316
16.5522
17.4076
18.3004
19.2374
20.2202
21.2466
22.3165
23.4341
24.6043
25.8333
27.132
28.5037
29.938
31.4397
33.0223
34.6905
36.443
38.2836
40.2161
42.2449
44.3695
46.5956
48.9357
51.4009
54.0054
56.771
59.7199
62.9057
66.3577
70.1742
74.3357
79.1229
84.5854
91.3285
102.438
116.924
132.588
0.557555
0.709409
0.64472
0.520132
0.536259
0.748832
1.03371
1.25367
1.37525
1.44019
1.49655
1.56672
1.65171
1.74568
1.84465
1.94785
2.05601
2.16996
2.29022
2.41712
2.55098
2.69215
2.84104
2.99783
3.16386
3.33868
3.52253
3.71657
3.9214
4.13702
4.364
4.60338
4.85583
5.12175
5.40176
5.6966
6.00711
6.33416
6.67865
7.04123
7.42257
7.82363
8.24553
8.68957
9.15665
9.64787
10.1643
10.7066
11.2763
11.8744
12.502
13.1606
13.8537
14.5834
15.3493
16.1492
16.9823
17.8545
18.7717
19.7322
20.7336
21.7783
22.8716
24.0174
25.2227
26.4967
27.8391
29.2368
30.7058
32.2568
33.8895
35.6043
37.4058
39.2973
41.28
43.3552
45.5323
47.8209
50.2308
52.7763
55.481
58.367
61.4867
64.8709
68.6315
72.7421
77.5245
82.963
89.8225
100.999
116.566
135.363
3.08282
3.25275
3.43213
3.62142
3.82095
4.03078
4.25189
4.48526
4.73123
4.9902
5.26292
5.55017
5.8527
6.17144
6.50713
6.86029
7.23165
7.62244
8.03373
8.46658
8.92189
9.40065
9.90394
10.4326
10.9879
11.5708
12.1826
12.8253
13.5027
14.2154
14.9617
15.7399
16.5512
17.4041
18.3009
19.2375
20.2135
21.2331
22.3023
23.4232
24.6042
25.8518
27.1592
28.5209
29.959
31.4775
33.073
34.7495
36.5105
38.359
40.2951
42.321
44.4473
46.682
49.0362
51.5241
54.1671
56.9865
60.0356
63.3466
67.0376
71.0925
75.8564
81.2598
88.2276
99.483
115.904
137.151
3.34072
3.52528
3.7193
3.92336
4.13873
4.36604
4.60531
4.85725
5.12268
5.40225
5.69676
6.00709
6.3338
6.67738
7.03883
7.41938
7.81988
8.24137
8.68478
9.15096
9.64092
10.1556
10.6964
11.264
11.8599
12.4873
13.1489
13.8435
14.5689
15.3247
16.1152
16.9494
17.8244
18.7352
19.686
20.682
21.7268
22.8222
23.9783
25.1954
3.42782
3.6162
3.81499
4.02472
4.24576
4.47816
4.72312
4.98123
5.25306
5.53956
5.84138
6.15893
6.49282
6.84436
7.21456
7.60423
8.01421
8.44554
8.89901
9.37552
9.87608
10.4023
10.9544
11.5347
12.1471
12.7923
13.4671
14.1709
14.9046
15.676
16.4917
17.3418
18.2264
19.1529
20.1254
21.1449
22.2143
23.3431
3.70578
3.90989
4.12437
4.34997
4.5881
4.83876
5.10285
5.38125
5.6744
5.98256
6.30686
6.64861
7.00839
7.38705
7.78542
8.20454
8.64509
9.10801
9.59445
10.106
10.6422
11.2078
11.8054
12.4324
13.086
13.7679
14.4811
15.2343
16.0285
16.8509
17.7107
18.6144
19.5628
20.5565
21.5989
3.79385
4.00162
4.22106
4.45229
4.69537
4.95181
5.22206
5.50629
5.80501
6.11996
6.45183
6.80106
7.16856
7.55533
7.96207
8.38959
8.83888
9.31111
9.80791
10.3283
10.8803
11.4617
12.0683
12.7002
13.3611
14.0551
14.7898
4.0916
4.31532
4.5513
4.80017
5.06197
5.33707
5.6267
5.93253
6.25425
6.59276
6.94916
7.32414
7.71837
8.13274
8.56839
9.02651
9.50835
10.0131
10.5519
11.114
11.6985
12.3096
12.9513
13.6268
4.40678
4.64757
4.90063
5.16671
5.44819
5.74469
6.05593
6.38384
6.72915
7.09216
7.47377
7.87507
8.29718
8.7411
9.20787
9.69742
5.26968
5.55574
5.85705
6.17471
6.50859
6.85945
7.22854
7.6169
8.02544
8.45506
8.90671
9.38096
5.65825
5.96506
6.28709
6.62599
6.98276
7.35819
7.75307
8.16831
8.60479
9.06354
57.4984
58.3851
59.4003
55.9768
56.7205
57.542
58.4575
59.5143
60.7417
62.0916
63.4592
64.7552
65.9604
67.2767
68.9797
70.974
72.5915
73.6009
75.5649
80.427
87.9167
63.5361
53.165
53.5101
53.8726
54.2782
54.7556
55.3179
55.9858
56.7437
57.5793
58.5215
59.6226
60.9154
62.3353
63.7571
65.106
66.3959
67.8613
69.7651
71.8834
73.4141
74.3184
76.3965
81.4939
87.6987
62.1979
51.8322
52.1654
52.499
52.8348
53.177
53.5243
53.8864
54.2882
54.7608
55.3231
55.9929
56.7614
57.6141
58.5834
59.7311
61.087
62.5796
64.0534
65.4564
66.843
68.4813
70.6013
72.8154
74.184
74.9454
77.2382
82.5402
87.519
61.1619
50.4813
50.8264
51.1665
51.5041
51.8423
52.1763
52.5105
52.8483
53.1888
53.5353
53.8964
54.2955
54.7631
55.3238
56.0011
56.7802
57.6479
58.6435
59.8386
61.2627
62.8316
64.3566
65.8124
67.3094
69.1478
71.5024
73.7771
74.9097
75.4856
78.067
83.4877
87.4179
60.3189
49.4089
49.7753
50.1351
50.4903
50.8365
51.1785
51.5173
51.8526
52.1876
52.5225
52.8599
53.2016
53.5492
53.9098
54.3044
54.7671
55.3269
56.0102
56.7997
57.6824
58.7042
59.9479
61.4401
63.085
64.6604
66.1727
67.8009
69.8743
72.4745
74.7649
75.6064
75.9893
78.8714
84.2921
87.3784
59.7682
48.653
49.0382
49.4173
49.786
50.1469
50.5002
50.8476
51.1899
51.5291
51.8662
52.2021
52.5381
52.8763
53.2181
53.5657
53.9259
54.3166
54.7746
55.3353
56.025
56.8207
57.7148
58.7642
60.0596
61.6192
63.3389
64.964
66.5402
68.3311
70.6821
73.5385
75.7871
76.2899
76.5221
79.6456
84.9688
87.2958
59.3025
47.8553
48.2623
48.6621
49.0497
49.4264
49.7958
50.1577
50.5125
50.8618
51.2058
51.5459
51.8845
52.2213
52.5577
52.896
53.2379
53.5855
53.944
54.3322
54.7881
55.3511
56.0431
56.8459
57.7515
58.8261
60.1723
61.7988
63.5882
65.2683
66.9251
68.9225
71.6019
74.709
76.8434
76.9409
77.034
80.3549
85.5999
87.1456
59.09
46.1149
46.5709
47.0142
47.4449
47.8671
48.2757
48.6728
49.0601
49.439
49.8101
50.1723
50.5283
50.8792
51.2244
51.5663
51.9057
52.2429
52.5801
52.9201
53.263
53.61
53.9675
54.3543
54.8095
55.374
56.0669
56.8755
57.7922
58.8922
60.2857
61.9755
63.8297
65.573
67.3347
69.5986
72.6654
76.0039
77.9183
77.4589
77.2881
80.8644
86.2019
87.0909
58.9252
44.1629
44.6737
45.1707
45.6536
46.126
46.5831
47.0273
47.4589
47.8784
48.2877
48.687
49.0768
49.4564
49.8276
50.1911
50.5482
50.8998
51.2464
51.5897
51.93
52.2686
52.6075
52.9482
53.2912
53.6386
53.9965
54.3836
54.8387
55.4043
56.1
56.911
57.8374
58.9615
60.4018
62.1518
64.065
65.8803
67.7802
70.3823
73.9042
77.4427
78.9606
77.648
76.998
81.0175
86.7023
87.1313
58.819
42.55
43.1034
43.643
44.1713
44.6833
45.1811
45.6649
46.1352
46.5934
47.0383
47.4716
47.8942
48.3054
48.7056
49.0955
49.4765
49.8497
50.2152
50.5729
50.9254
51.2738
51.6182
51.9595
52.2993
52.6395
52.9811
53.3247
53.6728
54.0308
54.4174
54.8738
55.4415
56.1407
56.9575
57.8911
59.035
60.5178
62.3274
64.2922
66.1893
68.2698
71.2872
75.3408
79.0195
79.8353
77.2723
76.1053
80.8292
87.0308
87.2203
58.787
41.402
41.9864
42.5579
43.1124
43.6528
44.1787
44.6914
45.1898
45.6745
46.1467
46.6064
47.0533
47.4885
47.9114
48.3237
48.7261
49.1185
49.5018
49.8763
50.243
50.6025
50.9568
51.3062
51.6511
51.9939
52.3349
52.6758
53.0182
53.3629
53.712
54.0707
54.4585
54.9159
55.4855
56.1887
57.0115
57.9521
59.1149
60.6381
62.4997
64.5148
66.503
68.8046
72.3144
76.9798
80.6675
80.3126
76.3105
74.9858
80.3714
87.2505
87.3879
58.7947
10.1051
10.581
11.0719
11.5796
12.1041
12.6456
13.2039
13.779
14.3706
14.9785
15.6023
16.2416
16.896
17.565
18.2477
18.9436
19.652
20.3718
21.1025
21.8427
22.5915
23.3479
24.1109
24.8793
25.6517
26.4267
27.2036
27.981
28.7575
29.5317
30.303
31.0698
31.831
32.5858
33.3322
34.0704
34.7991
35.5171
36.2239
36.9188
37.6014
38.2708
38.9265
39.5679
40.1955
40.8091
41.4105
41.995
42.5639
43.1195
43.661
44.188
44.7015
45.201
45.6873
46.1602
46.6211
47.0694
47.5057
47.9317
48.3465
48.7504
49.145
49.5306
49.9073
50.2754
50.6369
50.993
51.3439
51.6903
52.0341
52.3762
52.7186
53.0619
53.4071
53.7571
54.1172
54.506
54.9648
55.5373
56.2449
57.0738
58.0211
59.202
60.7629
62.6726
64.7316
66.8216
69.394
73.4561
78.78
82.1975
80.2045
75.2183
74.1529
79.8219
87.3871
87.6281
58.8595
10.1081
10.5819
11.0729
11.5806
12.1053
12.6468
13.2052
13.7804
14.372
14.98
15.6038
16.2432
16.8977
17.5668
18.2495
18.9454
19.654
20.374
21.1047
21.8449
22.5938
23.3505
24.1136
24.8819
25.6545
26.4297
27.2068
27.9844
28.7611
29.5356
30.307
31.074
31.8355
32.5903
33.3372
34.0753
34.8041
35.5226
36.23
36.9254
37.6082
38.2779
38.934
39.5763
40.2042
40.8175
41.417
42.0024
42.5729
43.1291
43.6711
44.1991
44.7133
45.214
45.7011
46.1755
46.6379
47.0877
47.5257
47.9528
48.3696
48.7762
49.1728
49.5603
49.9399
50.3113
50.6753
51.0333
51.386
51.7342
52.08
52.4236
52.7666
53.1111
53.4577
53.8087
54.1689
54.5587
55.0189
55.5945
56.3072
57.143
58.0977
59.2964
60.8939
62.8418
64.9408
67.146
70.0349
74.6907
80.6447
83.3556
79.7308
74.4671
73.636
79.3141
87.4587
87.9116
59.0301
10.107
10.5818
11.0728
11.5806
12.1052
12.6467
13.2051
13.7803
14.372
14.98
15.6039
16.2433
16.8979
17.5669
18.2497
18.9458
19.6542
20.3742
21.105
21.8455
22.5945
23.3512
24.1144
24.8829
25.6555
26.4309
27.208
27.9858
28.7625
29.5372
30.309
31.0764
31.8379
32.5926
33.3398
34.0786
34.808
35.5267
36.2342
36.93
37.6132
38.2833
38.9398
39.5825
40.2111
40.8255
41.4259
42.0121
42.5838
43.1409
43.6832
44.2117
44.7267
45.2284
45.7172
46.1926
46.6561
47.1083
47.5485
47.9772
48.3955
48.8045
49.2039
49.5938
49.9757
50.3496
50.7166
51.0775
51.4332
51.7839
52.1313
52.4766
52.8216
53.1675
53.5148
53.8669
54.2276
54.6178
55.0797
55.6576
56.3751
57.2191
58.1824
59.3992
61.0319
63.008
65.1425
67.4786
70.7235
75.9849
82.4529
84.0856
79.5812
74.1149
73.3915
78.9101
87.4669
88.144
59.2021
10.105
10.582
11.073
11.5807
12.1054
12.647
13.2055
13.7807
14.3723
14.9803
15.6044
16.2438
16.8985
17.5675
18.2504
18.9466
19.6552
20.3753
21.106
21.8466
22.5957
23.3524
24.1157
24.8844
25.6572
26.4328
27.2105
27.9884
28.7652
29.5403
30.3122
31.0793
31.8414
32.5968
33.3444
34.0835
34.813
35.5322
36.2401
36.9361
37.6197
38.2907
38.9482
39.5916
40.221
40.8361
41.4367
42.0237
42.5962
43.1543
43.6978
44.2275
44.7437
45.2463
45.736
46.2134
46.6785
47.131
47.5729
48.0037
48.4242
48.8353
49.237
49.6296
50.0143
50.391
50.7612
51.1247
51.4825
51.836
52.1867
52.5341
52.8806
53.2281
53.5776
53.931
54.293
54.6835
55.1458
55.7261
56.4483
57.3001
58.2752
59.511
61.1743
63.1717
65.332
67.8128
71.4459
77.2978
84.0993
84.8275
79.9904
74.2424
73.4618
78.6774
87.401
88.2905
59.3329
10.107
10.5821
11.0731
11.5809
12.1055
12.6472
13.2057
13.7809
14.3727
14.9807
15.6047
16.2443
16.8989
17.5681
18.2511
18.9473
19.6559
20.3761
21.1071
21.8478
22.5971
23.3539
24.1174
24.8865
25.6594
26.4351
27.2126
27.991
28.7683
29.5434
30.3155
31.0833
31.8454
32.601
33.3489