/*--------------------------------*- C++ -*----------------------------------*\
  =========                 |
  \\      /  F ield         | OpenFOAM: The Open Source CFD Toolbox
   \\    /   O peration     | Website:  https://openfoam.org
    \\  /    A nd           | Version:  9
     \\/     M anipulation  |
\*---------------------------------------------------------------------------*/
FoamFile
{
    format      ascii;
    class       volScalarField;
    location    "3000";
    object      p;
}
// * * * * * * * * * * * * * * * * * * * * * * * * * * * * * * * * * * * * * //

dimensions      [0 2 -2 0 0 0 0];

internalField   nonuniform List<scalar> 
13538
(
0.000320172
0.000297638
0.000289358
0.000269829
0.000258035
0.000241271
0.000227262
0.000210556
0.000194572
0.000176612
0.000158361
0.000138394
0.000117542
9.50249e-05
7.12267e-05
4.57041e-05
1.86022e-05
-1.03807e-05
-4.12336e-05
-7.42056e-05
-0.000109405
-0.000147098
-0.000187521
-0.000231025
-0.000278003
-0.000328967
-0.000384511
-0.000445369
-0.000512395
-0.000586584
-0.000669116
-0.000761307
-0.000864631
-0.000980775
-0.00111154
-0.00125893
-0.00142506
-0.00161223
-0.0018228
-0.0020593
-0.0023242
-0.00262018
-0.00294976
-0.0033155
-0.00371983
-0.00416501
-0.00465296
-0.00518525
-0.00576323
-0.00638765
-0.0070586
-0.00777578
-0.00853816
-0.00934404
-0.0101913
-0.0110771
-0.0119988
-0.012953
-0.0139365
-0.0149467
-0.0159812
-0.017038
-0.0181169
-0.019219
-0.0203457
-0.0215015
-0.0226926
-0.0239279
-0.0252176
-0.026575
-0.0280162
-0.0295605
-0.0312284
-0.0330466
-0.0350415
-0.0372407
-0.0396833
-0.0424001
-0.045433
-0.0488104
-0.0525897
-0.0567838
-0.061462
-0.0665929
-0.0723106
-0.0784481
-0.0852869
-0.0923902
-0.100345
-0.108194
-0.117216
-0.125347
-0.135431
-0.14311
-0.15439
-0.158188
-0.16905
-0.187997
-0.210935
0.000345999
0.000327336
0.000319054
0.000302664
0.000290538
0.000275881
0.000262375
0.000247414
0.000232545
0.000216407
0.000199763
0.000181868
0.000163076
0.000142962
0.000121676
9.89468e-05
7.48036e-05
4.90482e-05
2.16254e-05
-7.65665e-06
-3.89307e-05
-7.2429e-05
-0.000108394
-0.000147144
-0.000189059
-0.000234614
-0.000284373
-0.000339014
-0.000399334
-0.000466256
-0.000540873
-0.000624397
-0.000718189
-0.000823779
-0.00094284
-0.0010772
-0.00122877
-0.00139966
-0.00159201
-0.00180808
-0.00205015
-0.0023206
-0.00262167
-0.00295563
-0.00332463
-0.0037306
-0.00417523
-0.0046599
-0.00518564
-0.00575299
-0.00636193
-0.00701214
-0.00770255
-0.00843131
-0.00919675
-0.00999622
-0.0108269
-0.0116861
-0.0125711
-0.0134791
-0.0144084
-0.0153576
-0.0163261
-0.0173162
-0.0183292
-0.0193697
-0.0204443
-0.0215623
-0.0227333
-0.0239723
-0.0252946
-0.0267199
-0.0282709
-0.0299731
-0.0318557
-0.0339493
-0.0362899
-0.0389143
-0.0418683
-0.0451822
-0.04892
-0.0530886
-0.0577797
-0.0629472
-0.0687585
-0.0750011
-0.0820317
-0.0893107
-0.0975897
-0.105652
-0.11515
-0.12344
-0.134187
-0.141727
-0.154133
-0.158625
-0.1731
-0.184359
-0.201268
0.000372883
0.000356113
0.000348304
0.000334282
0.000322423
0.000309433
0.000296768
0.000283341
0.000269751
0.000255333
0.000240378
0.000224501
0.000207814
0.000190087
0.000171335
0.000151396
0.000130232
0.000107704
8.37267e-05
5.8143e-05
3.08098e-05
1.51998e-06
-2.99626e-05
-6.39341e-05
-0.000100753
-0.000140862
-0.000184784
-0.000233153
-0.000286704
-0.000346288
-0.000412905
-0.000487669
-0.000571828
-0.000666778
-0.00077404
-0.00089527
-0.00103221
-0.00118674
-0.00136081
-0.00155644
-0.00177567
-0.00202061
-0.0022932
-0.00259548
-0.00292928
-0.00329623
-0.00369781
-0.00413511
-0.00460897
-0.00511976
-0.00566729
-0.00625108
-0.00687014
-0.00752271
-0.00820722
-0.00892121
-0.00966194
-0.010427
-0.011214
-0.0120205
-0.0128454
-0.0136872
-0.0145457
-0.015423
-0.0163218
-0.0172464
-0.0182028
-0.0192006
-0.0202507
-0.0213671
-0.0225668
-0.023869
-0.025296
-0.0268753
-0.0286389
-0.0306151
-0.0328436
-0.0353658
-0.0382265
-0.0414619
-0.0451398
-0.0492681
-0.0539555
-0.0591464
-0.0650302
-0.0713695
-0.0785809
-0.0860382
-0.0946301
-0.102919
-0.112872
-0.121382
-0.132762
-0.14035
-0.153606
-0.158187
-0.174682
-0.18266
-0.196322
0.000401034
0.000385177
0.000378026
0.000365861
0.000354664
0.000343063
0.000331455
0.000319438
0.000307222
0.000294455
0.000281229
0.000267328
0.000252757
0.000237373
0.000221148
0.000203968
0.000185775
0.000166456
0.000145921
0.000124034
0.000100657
7.56021e-05
4.86451e-05
1.95156e-05
-1.2122e-05
-4.66766e-05
-8.46243e-05
-0.000126552
-0.000173137
-0.000225154
-0.00028352
-0.000349248
-0.000423471
-0.000507459
-0.00060258
-0.000710339
-0.000832303
-0.000970152
-0.00112564
-0.00130055
-0.0014967
-0.00171595
-0.00196001
-0.00223062
-0.00252941
-0.00285771
-0.0032167
-0.00360732
-0.00403018
-0.00448542
-0.00497282
-0.00549172
-0.00604125
-0.0066194
-0.00722488
-0.00785526
-0.00850811
-0.00918132
-0.00987217
-0.0105792
-0.011301
-0.0120367
-0.0127863
-0.0135519
-0.0143363
-0.015144
-0.0159812
-0.0168584
-0.0177858
-0.0187769
-0.0198505
-0.0210255
-0.0223241
-0.0237762
-0.0254132
-0.0272641
-0.0293733
-0.0317829
-0.0345399
-0.0376828
-0.041289
-0.0453686
-0.0500381
-0.0552363
-0.0611788
-0.0676097
-0.0749956
-0.0826252
-0.0915238
-0.10006
-0.11047
-0.119245
-0.131228
-0.138972
-0.153007
-0.157812
-0.175512
-0.180653
-0.192134
0.000429639
0.000414274
0.000407687
0.00039706
0.000386682
0.000376321
0.000365855
0.000355191
0.000344386
0.00033324
0.000321757
0.000309804
0.000297347
0.00028429
0.000270588
0.000256151
0.000240917
0.000224798
0.000207702
0.000189513
0.0001701
0.000149294
0.000126888
0.000102637
7.62321e-05
4.72992e-05
1.54051e-05
-1.99853e-05
-5.94897e-05
-0.000103812
-0.000153779
-0.000210309
-0.000274424
-0.00034727
-0.000430077
-0.000524189
-0.000631004
-0.00075202
-0.000888804
-0.00104291
-0.00121593
-0.00140951
-0.0016251
-0.00186422
-0.00212823
-0.00241819
-0.00273508
-0.0030796
-0.00345218
-0.00385279
-0.00428101
-0.00473614
-0.00521726
-0.00572253
-0.0062504
-0.00679872
-0.00736527
-0.00794799
-0.00854435
-0.00915309
-0.00977287
-0.0104033
-0.0110447
-0.011699
-0.0123688
-0.0130592
-0.0137765
-0.014531
-0.0153337
-0.0161974
-0.0171409
-0.0181839
-0.0193495
-0.0206677
-0.0221707
-0.02389
-0.0258711
-0.028156
-0.030799
-0.0338406
-0.0373616
-0.0413785
-0.0460106
-0.0512051
-0.0571965
-0.063706
-0.0712492
-0.0790589
-0.0882607
-0.0970629
-0.107946
-0.117002
-0.129595
-0.137579
-0.152339
-0.157315
-0.175643
-0.179211
-0.189379
0.000458554
0.000443528
0.000437392
0.000428082
0.000418594
0.000409378
0.000400092
0.000390748
0.000381367
0.000371819
0.000362074
0.000352049
0.000341697
0.000330948
0.000319751
0.000308038
0.000295751
0.000282815
0.000269149
0.000254651
0.000239202
0.000222652
0.000204816
0.000185472
0.000164341
0.000141087
0.000115317
8.65493e-05
5.42269e-05
1.77193e-05
-2.37155e-05
-7.09045e-05
-0.000124759
-0.0001863
-0.000256636
-0.00033694
-0.000428452
-0.000532507
-0.00065048
-0.000783726
-0.000933602
-0.00110153
-0.00128879
-0.00149659
-0.00172606
-0.00197807
-0.0022534
-0.00255248
-0.00287554
-0.00322247
-0.00359263
-0.00398526
-0.00439938
-0.00483327
-0.00528515
-0.00575307
-0.00623489
-0.00672858
-0.00723204
-0.00774411
-0.0082635
-0.00878964
-0.00932324
-0.00986643
-0.010422
-0.010995
-0.0115919
-0.0122221
-0.0128975
-0.0136311
-0.0144412
-0.0153485
-0.0163758
-0.0175539
-0.0189158
-0.0204961
-0.0223383
-0.0244898
-0.0270079
-0.0299354
-0.0333547
-0.0372931
-0.0418749
-0.0470524
-0.0530785
-0.0596516
-0.067349
-0.0753313
-0.0848322
-0.0939145
-0.105255
-0.114651
-0.127868
-0.136154
-0.151581
-0.156836
-0.175592
-0.178271
-0.18742
0.00048757
0.000472851
0.000467057
0.000458894
0.000450312
0.00044218
0.000434074
0.000426028
0.000418067
0.000410098
0.000402087
0.00039397
0.000385705
0.000377238
0.000368527
0.00035952
0.000350162
0.000340392
0.00033014
0.000319321
0.000307831
0.000295538
0.000282281
0.000267862
0.000252034
0.000234498
0.000214905
0.000192826
0.000167765
0.00013916
0.000106357
6.86165e-05
2.51387e-05
-2.49884e-05
-8.27316e-05
-0.00014912
-0.000225251
-0.000312279
-0.000411388
-0.000523752
-0.000650539
-0.000792932
-0.00095202
-0.00112876
-0.00132404
-0.00153856
-0.00177286
-0.00202721
-0.00230158
-0.00259572
-0.00290893
-0.00324034
-0.0035888
-0.00395265
-0.00433009
-0.00471918
-0.00511787
-0.00552432
-0.00593636
-0.00635303
-0.00677322
-0.00719616
-0.00762276
-0.00805551
-0.00849682
-0.00895202
-0.00942784
-0.00993265
-0.010479
-0.01108
-0.0117533
-0.0125204
-0.0134059
-0.0144379
-0.0156511
-0.0170822
-0.0187769
-0.0207851
-0.0231631
-0.0259625
-0.0292656
-0.0331126
-0.0376286
-0.0427729
-0.0488116
-0.0554462
-0.063276
-0.0714289
-0.0812311
-0.0905869
-0.102418
-0.112173
-0.126019
-0.134687
-0.150776
-0.15638
-0.175442
-0.177866
-0.186148
0.000516571
0.000502187
0.000496664
0.00048951
0.000481826
0.000474728
0.000467789
0.000461024
0.00045447
0.000448062
0.000441765
0.00043554
0.000429344
0.000423142
0.000416898
0.000410568
0.000404112
0.000397486
0.00039063
0.000383473
0.000375929
0.000367887
0.000359208
0.000349721
0.000339211
0.00032742
0.00031404
0.000298694
0.000280953
0.000260319
0.00023622
0.000208007
0.000174979
0.000136351
9.12794e-05
3.88604e-05
-2.18427e-05
-9.18025e-05
-0.000172054
-0.000263585
-0.000367376
-0.000484385
-0.000615487
-0.000761456
-0.000922959
-0.00110049
-0.00129438
-0.00150471
-0.00173123
-0.00197357
-0.00223097
-0.00250231
-0.00278643
-0.0030816
-0.0033861
-0.00369795
-0.00401522
-0.00433612
-0.00465825
-0.00498092
-0.00530289
-0.00562397
-0.00594501
-0.00626799
-0.00659516
-0.00693251
-0.00728625
-0.00766488
-0.00808079
-0.00854666
-0.0090805
-0.00970345
-0.0104415
-0.0113217
-0.0123794
-0.0136535
-0.0151907
-0.0170435
-0.0192696
-0.0219262
-0.0250999
-0.0288359
-0.033265
-0.0383593
-0.0443898
-0.0510728
-0.0590161
-0.0673399
-0.0774276
-0.0870852
-0.0993999
-0.109546
-0.124056
-0.13316
-0.149923
-0.155966
-0.175261
-0.177909
-0.185783
0.000545465
0.000531456
0.000526161
0.000519913
0.00051311
0.000507003
0.000501207
0.000495702
0.000490539
0.000485672
0.000481072
0.000476711
0.000472563
0.000468599
0.00046479
0.000461116
0.000457541
0.000454032
0.000450547
0.000447031
0.000443415
0.00043961
0.0004355
0.000430942
0.000425757
0.000419723
0.000412574
0.000403991
0.000393601
0.00038098
0.00036563
0.000346994
0.000324472
0.000297389
0.000265023
0.000226605
0.000181339
0.000128409
6.69607e-05
-3.81783e-06
-8.4744e-05
-0.000176567
-0.000279955
-0.000395521
-0.000523648
-0.000664707
-0.000818829
-0.000985843
-0.00116543
-0.00135696
-0.00155958
-0.00177208
-0.0019933
-0.00222129
-0.00245433
-0.00269051
-0.00292799
-0.00316476
-0.00339863
-0.00362891
-0.00385415
-0.00407457
-0.00429094
-0.00450459
-0.00471823
-0.00493788
-0.00516928
-0.00542068
-0.00570412
-0.00603344
-0.00642534
-0.00690058
-0.00748576
-0.00820861
-0.0091052
-0.0102144
-0.0115841
-0.0132703
-0.0153313
-0.0178303
-0.0208569
-0.0244623
-0.0287838
-0.0338095
-0.0398072
-0.0465203
-0.0545592
-0.0630506
-0.0734102
-0.0833756
-0.0961766
-0.106761
-0.121939
-0.131549
-0.149024
-0.155609
-0.175115
-0.178275
-0.186423
0.000574188
0.000560597
0.00055551
0.000550078
0.000544131
0.000538984
0.000534305
0.000530035
0.000526241
0.000522895
0.000519973
0.000517455
0.000515325
0.000513571
0.000512175
0.000511124
0.000510397
0.000509976
0.000509833
0.000509931
0.000510218
0.000510628
0.000511069
0.000511429
0.000511561
0.000511281
0.000510369
0.00050856
0.000505537
0.000500947
0.000494368
0.000485334
0.000473336
0.000457806
0.000438148
0.000413719
0.000383865
0.000347912
0.000305171
0.000254996
0.000196756
0.000129886
5.38921e-05
-3.16468e-05
-0.00012691
-0.000232083
-0.000347072
-0.000471562
-0.000605079
-0.000746848
-0.00089584
-0.00105075
-0.00121035
-0.00137266
-0.00153585
-0.00169787
-0.00185705
-0.00201126
-0.00215849
-0.00229797
-0.00242804
-0.00254892
-0.00266132
-0.0027667
-0.0028677
-0.00296971
-0.0030788
-0.00320237
-0.00335206
-0.00354286
-0.00379042
-0.00411531
-0.00454412
-0.00510389
-0.00583173
-0.00676822
-0.00796183
-0.00946905
-0.0113525
-0.0136783
-0.0165382
-0.0199951
-0.0241892
-0.029126
-0.0350584
-0.0417918
-0.0498911
-0.0585451
-0.069155
-0.0794481
-0.0927531
-0.10379
-0.119664
-0.129849
-0.148071
-0.155322
-0.175149
-0.179014
-0.187118
0.00060268
0.000589544
0.000584663
0.000579981
0.000574867
0.000570645
0.000567053
0.000563999
0.000561554
0.000559701
0.000558428
0.000557728
0.000557591
0.000558016
0.000559001
0.00056054
0.000562629
0.000565263
0.000568429
0.000572107
0.000576267
0.000580863
0.000585832
0.000591086
0.000596516
0.000601976
0.000607291
0.000612248
0.00061659
0.000620027
0.00062222
0.000622783
0.000621299
0.000617309
0.00061033
0.000599845
0.000585335
0.000566263
0.0005421
0.000512347
0.000476568
0.000434363
0.000385404
0.000329491
0.000266586
0.000196715
0.000120138
3.73264e-05
-5.10115e-05
-0.000144049
-0.000240558
-0.000339202
-0.000438505
-0.000536547
-0.000631443
-0.000720968
-0.000803437
-0.000876737
-0.000938933
-0.000988977
-0.00102524
-0.00104811
-0.00105787
-0.0010561
-0.00104507
-0.0010295
-0.00101583
-0.0010117
-0.00102731
-0.00107757
-0.00117829
-0.00135002
-0.00161838
-0.00201022
-0.00256405
-0.00332041
-0.00432791
-0.0056455
-0.00733637
-0.00947403
-0.01215
-0.0154396
-0.0194809
-0.0243007
-0.030152
-0.0368697
-0.0450046
-0.0538147
-0.0646441
-0.0752912
-0.0890703
-0.100612
-0.117224
-0.128033
-0.147053
-0.155057
-0.175368
-0.180145
-0.188391
0.000630901
0.00061825
0.000613583
0.000609594
0.000605287
0.000601964
0.000599431
0.000597566
0.00059644
0.000596058
0.000596409
0.000597496
0.000599322
0.000601898
0.000605227
0.00060932
0.000614189
0.00061984
0.000626277
0.000633499
0.000641495
0.000650242
0.000659703
0.000669821
0.000680518
0.000691692
0.000703211
0.000714912
0.000726599
0.000738042
0.000748978
0.000759108
0.000768105
0.000775612
0.000781252
0.000784633
0.000785351
0.000783019
0.000777268
0.000767741
0.000754152
0.000736287
0.000713986
0.000687231
0.000656152
0.000620944
0.000582044
0.000540137
0.000495978
0.000450614
0.000405412
0.000361808
0.000321397
0.000286204
0.000258115
0.000239471
0.000231976
0.000237909
0.000259109
0.000296964
0.000352798
0.000426447
0.000518326
0.000626544
0.000748541
0.000880606
0.00101703
0.00114941
0.00126818
0.00135907
0.00140698
0.00139164
0.00128818
0.00106805
0.000693031
0.000125073
-0.000687671
-0.00180385
-0.00328974
-0.00522239
-0.00769488
-0.0107942
-0.0146578
-0.0193367
-0.025077
-0.0317588
-0.0399009
-0.0488404
-0.0598658
-0.0708693
-0.0850999
-0.0972102
-0.114571
-0.126067
-0.145962
-0.154787
-0.175682
-0.181546
-0.190322
0.000658809
0.000646665
0.000642227
0.000638889
0.000635364
0.000632914
0.000631409
0.000630708
0.000630879
0.000631939
0.000633884
0.000636729
0.000640485
0.000645171
0.000650808
0.000657423
0.00066503
0.000673657
0.000683324
0.000694048
0.000705837
0.000718693
0.000732605
0.000747547
0.000763474
0.000780323
0.000798007
0.000816414
0.000835405
0.000854814
0.000874451
0.000894097
0.000913514
0.000932443
0.000950611
0.000967748
0.000983568
0.000997812
0.00101027
0.00102071
0.00102903
0.00103514
0.0010391
0.00104099
0.00104115
0.00103991
0.00103794
0.00103606
0.00103512
0.0010364
0.00104129
0.00105142
0.00106854
0.0010947
0.00113198
0.00118255
0.00124837
0.0013319
0.00143494
0.00155896
0.00170518
0.001874
0.00206598
0.00227948
0.00251171
0.00275966
0.00301767
0.00327822
0.00353217
0.00376509
0.00396305
0.00410622
0.00417002
0.00412571
0.00393641
0.0035633
0.0029542
0.00205087
0.000781483
-0.000929091
-0.00317904
-0.00606656
-0.00973012
-0.0142365
-0.0198339
-0.0264473
-0.0345656
-0.0436067
-0.054803
-0.0661611
-0.0808332
-0.0935511
-0.111665
-0.123919
-0.144787
-0.154494
-0.17612
-0.183121
-0.192832
0.000686369
0.000674752
0.000670558
0.000667834
0.000665071
0.000663471
0.000662966
0.000663401
0.000664841
0.000667312
0.000670824
0.000675393
0.000681044
0.000687806
0.000695715
0.000704805
0.000715109
0.000726668
0.000739518
0.000753696
0.000769231
0.000786148
0.000804462
0.000824178
0.000845287
0.00086776
0.000891558
0.00091662
0.000942861
0.000970178
0.000998452
0.00102755
0.0010573
0.00108755
0.00111814
0.00114889
0.00117964
0.00121027
0.0012407
0.00127085
0.00130071
0.00133043
0.00136016
0.00139018
0.00142095
0.00145303
0.00148721
0.00152443
0.00156575
0.00161256
0.00166638
0.00172899
0.00180224
0.00188827
0.00198929
0.00210745
0.00224502
0.00240437
0.00258749
0.00279602
0.00303112
0.00329374
0.00358421
0.00390111
0.00424249
0.00460566
0.00498461
0.005373
0.00576203
0.00613815
0.00648754
0.00679093
0.00702428
0.00715927
0.00716142
0.00698911
0.0065905
0.0059095
0.00487171
0.00339529
0.00138512
-0.00126456
-0.00470063
-0.00900596
-0.014431
-0.0209302
-0.0289936
-0.0381061
-0.049441
-0.0611439
-0.076239
-0.0895911
-0.108484
-0.121565
-0.143461
-0.154138
-0.176704
-0.184883
-0.196358
0.00071355
0.000702474
0.000698541
0.000696405
0.000694383
0.000693608
0.000694076
0.000695621
0.000698299
0.000702152
0.000707196
0.000713456
0.000720968
0.000729771
0.000739908
0.000751428
0.000764384
0.000778826
0.00079481
0.000812391
0.000831619
0.000852543
0.000875203
0.000899636
0.000925865
0.000953905
0.000983757
0.00101541
0.00104883
0.00108398
0.00112081
0.00115925
0.00119923
0.00124069
0.00128355
0.00132776
0.00137326
0.00142005
0.00146818
0.00151771
0.00156878
0.00162168
0.0016767
0.00173429
0.00179508
0.00185976
0.00192928
0.00200468
0.00208727
0.00217852
0.00228005
0.00239387
0.00252183
0.00266618
0.00282936
0.0030136
0.00322126
0.00345473
0.00371609
0.00400731
0.00432975
0.00468435
0.0050719
0.00549094
0.00594004
0.00641713
0.00691639
0.00743192
0.00795537
0.00847514
0.00897676
0.00944127
0.00984722
0.0101649
0.0103616
0.0103969
0.0102165
0.00976646
0.00897227
0.00774644
0.00599358
0.00360383
0.000424469
-0.00365219
-0.00886534
-0.0152197
-0.0231802
-0.0323275
-0.04377
-0.0557837
-0.0713005
-0.0853147
-0.104999
-0.118968
-0.141979
-0.153667
-0.177352
-0.186794
-0.200115
0.000740328
0.000729799
0.000726146
0.000724569
0.000723269
0.000723302
0.000724715
0.000727342
0.000731233
0.000736437
0.000742981
0.000750894
0.000760224
0.000771026
0.000783351
0.000797258
0.000812815
0.00083009
0.000849155
0.000870082
0.000892944
0.000917814
0.000944759
0.000973846
0.00100513
0.00103867
0.0010745
0.00111266
0.00115317
0.00119607
0.00124135
0.00128903
0.00133912
0.00139164
0.00144661
0.00150409
0.00156412
0.00162682
0.00169236
0.00176094
0.00183284
0.00190846
0.00198827
0.00207285
0.00216298
0.00225951
0.00236355
0.00247624
0.00259906
0.00273364
0.0028817
0.00304535
0.00322665
0.00342795
0.00365166
0.00390028
0.00417629
0.00448212
0.00482005
0.00519219
0.00560014
0.00604497
0.00652774
0.00704751
0.0076032
0.00819272
0.00881137
0.00945356
0.0101111
0.0107739
0.0114275
0.012054
0.0126338
0.0131378
0.0135329
0.0137801
0.0138256
0.0136154
0.0130745
0.0121157
0.0106374
0.00852523
0.00562829
0.00181903
-0.00314999
-0.00930916
-0.0171264
-0.0262612
-0.0377633
-0.0500726
-0.0659778
-0.0806659
-0.101157
-0.116068
-0.140345
-0.153018
-0.178
-0.188679
-0.204032
0.000766676
0.000756699
0.000753343
0.000752309
0.00075171
0.00075253
0.000754862
0.000758541
0.000763615
0.00077014
0.000778148
0.000787679
0.000798792
0.000811549
0.000826012
0.000842258
0.000860366
0.00088042
0.000902507
0.000926721
0.000953155
0.000981906
0.00101307
0.00104673
0.001083
0.00112195
0.00116367
0.00120826
0.00125577
0.0013063
0.00135992
0.00141672
0.00147678
0.0015402
0.0016071
0.00167763
0.00175195
0.00183029
0.00191293
0.0020002
0.00209252
0.0021904
0.00229445
0.00240544
0.00252422
0.00265185
0.00278952
0.00293857
0.0031006
0.00327738
0.00347078
0.003683
0.00391616
0.00417284
0.00445553
0.00476685
0.00510948
0.00548594
0.00589868
0.00634987
0.00684141
0.00737483
0.00795108
0.00856983
0.00923054
0.00993089
0.0106673
0.011435
0.0122264
0.0130314
0.0138368
0.0146267
0.015381
0.0160724
0.0166694
0.0171325
0.0174108
0.0174481
0.0171708
0.0164928
0.0153076
0.0134957
0.0109071
0.00739543
0.0027137
-0.00320866
-0.0108324
-0.0198967
-0.0314237
-0.0439814
-0.0602467
-0.0756044
-0.0969282
-0.112833
-0.138426
-0.152135
-0.178636
-0.190397
-0.207914
0.000792572
0.00078315
0.000780103
0.000779596
0.000779681
0.000781268
0.000784494
0.0007892
0.000795426
0.000803237
0.000812673
0.000823786
0.000836642
0.000851306
0.000867862
0.000886397
0.000907002
0.000929777
0.000954827
0.000982264
0.0010122
0.00104476
0.00108006
0.00111824
0.0011594
0.00120368
0.0012512
0.0013021
0.00135651
0.00141456
0.00147639
0.00154215
0.00161202
0.00168616
0.00176479
0.00184814
0.00193649
0.00203017
0.00212956
0.00223515
0.00234745
0.00246711
0.00259487
0.00273162
0.00287838
0.00303631
0.00320679
0.00339126
0.00359146
0.00380931
0.00404679
0.00430617
0.00458982
0.00490039
0.00524049
0.00561293
0.00602037
0.00646562
0.00695133
0.00747975
0.00805306
0.00867311
0.00934104
0.010057
0.0108208
0.0116306
0.0124837
0.0133752
0.0142986
0.0152454
0.0162026
0.0171554
0.0180849
0.0189655
0.0197665
0.0204487
0.0209641
0.0212561
0.0212528
0.0208686
0.0199919
0.0185056
0.0162488
0.0130685
0.00871237
0.00307217
-0.00430784
-0.0132477
-0.0247437
-0.0374823
-0.0540732
-0.0700874
-0.0922835
-0.109211
-0.136271
-0.15099
-0.179277
-0.19193
-0.211632
0.000818
0.000809129
0.000806403
0.000806407
0.000807159
0.000809496
0.000813592
0.000819294
0.000826642
0.000835708
0.000846535
0.000859189
0.00087374
0.000890272
0.000908874
0.000929643
0.000952689
0.000978126
0.00100608
0.00103667
0.00107004
0.00110634
0.0011457
0.00118829
0.00123425
0.00128377
0.00133699
0.0013941
0.00145528
0.00152071
0.00159061
0.00166519
0.00174468
0.00182934
0.00191948
0.00201541
0.00211751
0.00222621
0.00234202
0.00246551
0.00259733
0.00273825
0.00288914
0.00305101
0.00322504
0.00341251
0.00361491
0.00383387
0.00407115
0.00432891
0.00460921
0.00491444
0.00524721
0.00561015
0.00600608
0.00643793
0.00690848
0.00742062
0.00797738
0.00858117
0.00923447
0.00993903
0.0106968
0.011508
0.0123729
0.0132904
0.0142584
0.0152722
0.0163267
0.0174137
0.018522
0.0196377
0.0207425
0.0218125
0.0228185
0.0237235
0.0244806
0.025034
0.025313
0.0252324
0.0246809
0.0235399
0.0216409
0.0188238
0.014836
0.00952057
0.00243783
-0.00630835
-0.0177004
-0.0305679
-0.0474539
-0.0640668
-0.0871537
-0.105156
-0.133794
-0.149582
-0.17996
-0.193211
-0.215584
0.000842932
0.000834616
0.000832225
0.000832722
0.000834124
0.000837193
0.000842133
0.000848805
0.000857245
0.000867529
0.000879712
0.000893866
0.000910073
0.000928423
0.000949018
0.000971969
0.000997398
0.00102543
0.00105622
0.00108989
0.00112662
0.00116657
0.00120991
0.00125683
0.00130751
0.00136214
0.00142095
0.00148415
0.00155197
0.00162466
0.00170246
0.00178568
0.0018746
0.00196958
0.00207099
0.00217924
0.0022948
0.00241818
0.00255002
0.002691
0.00284186
0.00300353
0.00317697
0.00336332
0.0035639
0.00378009
0.00401352
0.00426594
0.00453933
0.00483581
0.00515772
0.00550753
0.00588791
0.00630169
0.00675182
0.00724136
0.00777328
0.00835064
0.00897653
0.00965372
0.0103849
0.0111722
0.0120176
0.0129222
0.0138862
0.0149093
0.01599
0.0171246
0.0183085
0.0195346
0.0207927
0.02207
0.0233496
0.0246094
0.0258213
0.0269507
0.0279525
0.028773
0.0293421
0.0295744
0.0293624
0.0285834
0.0270698
0.0246498
0.0210624
0.016133
0.00940192
0.000915791
-0.0103076
-0.0232314
-0.0403425
-0.057531
-0.0814774
-0.100598
-0.130954
-0.147856
-0.180735
-0.194393
-0.219003
0.00086736
0.000859592
0.000857541
0.00085852
0.000860558
0.000864339
0.0008701
0.000877715
0.000887214
0.000898683
0.000912186
0.000927801
0.000945617
0.000965736
0.000988272
0.00101335
0.0010411
0.00107167
0.00110522
0.00114191
0.00118192
0.00122543
0.00127266
0.0013238
0.00137909
0.00143875
0.00150302
0.00157218
0.0016465
0.00172628
0.00181183
0.0019035
0.00200166
0.00210672
0.00221915
0.00233943
0.00246813
0.00260587
0.00275336
0.00291139
0.00308082
0.00326267
0.00345806
0.00366823
0.00389462
0.00413871
0.00440227
0.00468722
0.0049956
0.00532972
0.00569194
0.00608498
0.00651157
0.00697473
0.00747744
0.00802297
0.00861443
0.00925514
0.00994834
0.010697
0.011504
0.0123719
0.013303
0.0142986
0.01536
0.0164867
0.0176779
0.0189313
0.0202427
0.0216059
0.0230124
0.0244503
0.0259036
0.0273522
0.0287711
0.0301258
0.0313733
0.0324644
0.0333293
0.0338836
0.0340229
0.0336235
0.0325181
0.0305287
0.0273823
0.0228882
0.0165748
0.0084086
-0.00255517
-0.015453
-0.0327079
-0.0504374
-0.0751988
-0.0954699
-0.127606
-0.145752
-0.181415
-0.195476
-0.223072
0.000884039
0.000882337
0.000883787
0.000886441
0.000890917
0.000897475
0.000906005
0.000916535
0.000929154
0.000943938
0.000960967
0.000980348
0.00100219
0.00102661
0.00105376
0.00108377
0.0011168
0.00115304
0.00119267
0.00123587
0.00128287
0.00133389
0.00138917
0.00144895
0.00151351
0.00158313
0.00165811
0.00173878
0.00182548
0.0019186
0.00201853
0.00212571
0.00224063
0.0023638
0.00249583
0.00263734
0.00278906
0.00295179
0.00312642
0.00331393
0.00351545
0.00373216
0.00396545
0.00421689
0.0044881
0.00478091
0.00509737
0.00543966
0.00581023
0.00621161
0.0066465
0.00711787
0.00762885
0.00818257
0.00878244
0.00943172
0.0101339
0.0108924
0.0117105
0.0125913
0.0135378
0.0145523
0.0156369
0.016793
0.0180213
0.0193212
0.0206911
0.0221276
0.0236263
0.0251789
0.0267753
0.0284014
0.0300384
0.0316631
0.0332431
0.0347387
0.0361021
0.0372669
0.0381516
0.0386533
0.0386507
0.0379721
0.036438
0.033774
0.0297635
0.0239309
0.0161772
0.00554964
-0.00722414
-0.0245359
-0.0427297
-0.0683033
-0.0897156
-0.123689
-0.143207
-0.181935
-0.19635
-0.227708
0.000906596
0.000908504
0.000911758
0.000916908
0.000924239
0.000933657
0.000945185
0.000958918
0.000974946
0.000993352
0.00101425
0.00103776
0.00106402
0.00109317
0.00112538
0.00116081
0.00119967
0.00124215
0.00128847
0.00133886
0.00139357
0.00145286
0.00151703
0.00158637
0.00166119
0.00174185
0.00182872
0.00192219
0.00202268
0.00213066
0.00224664
0.00237116
0.00250481
0.00264828
0.00280228
0.0029676
0.00314515
0.00333592
0.00354098
0.00376159
0.00399902
0.00425475
0.00453049
0.00482795
0.00514913
0.00549613
0.00587129
0.00627714
0.00671639
0.00719183
0.00770658
0.00826387
0.00886698
0.00951945
0.0102248
0.0109867
0.0118086
0.0126941
0.0136467
0.0146695
0.0157653
0.0169366
0.0181854
0.0195126
0.0209189
0.0224029
0.0239622
0.0255937
0.0272905
0.0290435
0.03084
0.0326639
0.0344935
0.0362984
0.038043
0.0396806
0.0411486
0.0423687
0.0432418
0.0436483
0.0434176
0.0423659
0.0402198
0.0367421
0.0314481
0.0241797
0.0139864
0.00143349
-0.0158274
-0.0343707
-0.0607036
-0.0832767
-0.119192
-0.140159
-0.182201
-0.197084
-0.233093
0.000942301
0.000950382
0.000960656
0.00097315
0.000987965
0.00100519
0.00102493
0.0010473
0.00107243
0.00110047
0.00113156
0.0011659
0.00120367
0.00124507
0.00129032
0.00133966
0.00139334
0.00145165
0.00151486
0.00158329
0.00165727
0.00173717
0.00182336
0.00191625
0.0020163
0.00212397
0.0022398
0.00236433
0.00249819
0.00264205
0.00279663
0.00296276
0.00314131
0.00333327
0.00353971
0.00376181
0.00400091
0.00425842
0.00453591
0.00483518
0.00515808
0.00550668
0.00588325
0.00629021
0.00673025
0.00720608
0.00772076
0.00827746
0.00887954
0.0095305
0.0102339
0.0109935
0.0118132
0.0126966
0.0136475
0.0146697
0.0157667
0.0169417
0.0181974
0.0195364
0.0209603
0.0224703
0.024066
0.025746
0.0275076
0.0293455
0.0312528
0.0332174
0.0352256
0.0372582
0.0392874
0.0412796
0.043192
0.0449666
0.0465261
0.0477772
0.0486026
0.0488368
0.0482915
0.0466978
0.0438015
0.039109
0.0324119
0.02274
0.0105262
-0.0065658
-0.0253685
-0.0523394
-0.076071
-0.114008
-0.136538
-0.18217
-0.197735
-0.238701
0.000975882
0.000986988
0.00100042
0.00101628
0.00103467
0.0010557
0.00107949
0.00110618
0.00113594
0.00116892
0.00120533
0.00124535
0.00128921
0.00133715
0.00138942
0.0014463
0.00150809
0.0015751
0.00164767
0.00172617
0.00181099
0.00190255
0.00200131
0.00210775
0.00222241
0.00234585
0.0024787
0.00262163
0.00277538
0.00294077
0.00311866
0.00331004
0.00351596
0.00373759
0.00397621
0.00423323
0.00451018
0.00480874
0.00513079
0.00547828
0.00585343
0.00625857
0.00669628
0.00716931
0.00768052
0.00823312
0.00883037
0.00947573
0.0101729
0.0109256
0.0117377
0.0126133
0.0135563
0.0145707
0.0156604
0.0168294
0.0180811
0.019419
0.0208457
0.0223638
0.0239749
0.0256795
0.0274774
0.0293667
0.0313434
0.0334016
0.0355322
0.0377222
0.0399548
0.0422061
0.0444449
0.0466313
0.0487117
0.0506145
0.0522488
0.0534995
0.0542122
0.0541972
0.0531858
0.0509107
0.0468762
0.04083
0.0317879
0.020043
0.00325249
-0.0156509
-0.0431899
-0.0680035
-0.107989
-0.132229
-0.181775
-0.198224
-0.24418
0.00101264
0.00102697
0.00104384
0.00106336
0.00108563
0.0011108
0.001139
0.00117042
0.00120523
0.00124362
0.00128583
0.00133207
0.00138262
0.00143773
0.00149771
0.00156287
0.00163356
0.00171015
0.00179302
0.00188262
0.00197939
0.00208383
0.00219648
0.0023179
0.00244873
0.00258964
0.00274137
0.00290472
0.00308056
0.00326987
0.00347366
0.0036931
0.00392944
0.00418403
0.00445839
0.00475414
0.00507307
0.00541712
0.00578837
0.00618913
0.00662187
0.00708927
0.00759415
0.00813954
0.00872873
0.00936512
0.0100523
0.0107941
0.0115944
0.0124574
0.0133869
0.0143875
0.0154633
0.0166185
0.0178573
0.0191836
0.0206012
0.0221133
0.023723
0.0254326
0.0272434
0.0291563
0.0311701
0.0332825
0.035489
0.0377819
0.0401514
0.0425813
0.0450515
0.0475343
0.0499932
0.0523778
0.0546238
0.0566442
0.0583293
0.0595307
0.060062
0.0596585
0.0580468
0.0547316
0.0494161
0.0411057
0.0299548
0.0136242
-0.00525138
-0.0331733
-0.058995
-0.101023
-0.127114
-0.180864
-0.198349
-0.250104
0.00254836
0.00269707
0.00285732
0.00302995
0.00321592
0.00341625
0.00363207
0.00386458
0.00411513
0.00438515
0.00467626
0.00499016
0.00532873
0.00569401
0.00608819
0.00651369
0.00697303
0.00746905
0.00800468
0.00858304
0.00920752
0.00988166
0.0106092
0.0113941
0.0122404
0.0131523
0.0141342
0.0151905
0.0163256
0.0175442
0.0188505
0.0202491
0.0217438
0.0233389
0.0250376
0.0268431
0.0287574
0.0307822
0.0329177
0.0351626
0.0375142
0.0399663
0.042511
0.0451352
0.047821
0.0505451
0.0532739
0.0559618
0.0585496
0.060956
0.063081
0.0647798
0.0658705
0.0661017
0.0651916
0.0626476
0.0581355
0.0506598
0.0402394
0.0245179
0.00586666
-0.0222704
-0.0489799
-0.0930161
-0.121057
-0.17923
-0.197932
-0.255848
0.0029694
0.003151
0.00334675
0.00355773
0.00378514
0.00403027
0.00429452
0.00457944
0.00488668
0.00521809
0.00557561
0.00596136
0.00637765