/*--------------------------------*- C++ -*----------------------------------*\
  =========                 |
  \\      /  F ield         | OpenFOAM: The Open Source CFD Toolbox
   \\    /   O peration     | Website:  https://openfoam.org
    \\  /    A nd           | Version:  9
     \\/     M anipulation  |
\*---------------------------------------------------------------------------*/
FoamFile
{
    format      ascii;
    class       surfaceScalarField;
    location    "3000";
    object      phi;
}
// * * * * * * * * * * * * * * * * * * * * * * * * * * * * * * * * * * * * * //

dimensions      [0 3 -1 0 0 0 0];

internalField   nonuniform List<scalar> 
26826
(
0.00500217
-0.490648
0.489998
0.00523447
-0.462555
0.462323
0.00529525
-0.436229
0.436168
0.00521748
-0.411481
0.411559
0.00507186
-0.388106
0.388252
0.00485732
-0.366109
0.366323
0.00467822
-0.345385
0.345564
0.00443036
-0.3258
0.326048
0.00421769
-0.307387
0.3076
0.00397082
-0.289975
0.290221
0.00375898
-0.273563
0.273775
0.00354747
-0.258083
0.258295
0.00330174
-0.243467
0.243713
0.00312543
-0.229714
0.22989
0.0029494
-0.21672
0.216896
0.00274939
-0.204442
0.204642
0.00258071
-0.192885
0.193054
0.00241913
-0.181975
0.182137
0.00227157
-0.171686
0.171834
0.00212761
-0.161971
0.162115
0.00199763
-0.152813
0.152943
0.00187124
-0.144169
0.144295
0.00175189
-0.136016
0.136135
0.0016361
-0.128322
0.128438
0.0015308
-0.121068
0.121173
0.00142905
-0.114221
0.114323
0.00133775
-0.107765
0.107856
0.00124654
-0.101669
0.10176
0.00116229
-0.0959247
0.0960089
0.00108503
-0.0905024
0.0905797
0.00100781
-0.0853845
0.0854617
0.000937539
-0.0805605
0.0806307
0.000870728
-0.0760097
0.0760765
0.000807359
-0.071715
0.0717784
0.000747447
-0.0676659
0.0677258
0.000690922
-0.0638452
0.0639017
0.00063782
-0.0602391
0.0602922
0.000588083
-0.0568406
0.0568903
0.000541676
-0.0536359
0.0536823
0.000495173
-0.0506078
0.0506543
0.000451956
-0.0477562
0.0477994
0.000412078
-0.0450639
0.0451038
0.000371989
-0.0425238
0.0425639
0.000335175
-0.0401326
0.0401694
0.000301623
-0.0378729
0.0379064
0.000267852
-0.0357412
0.0357749
0.00023732
-0.0337339
0.0337645
0.000206585
-0.0318374
0.0318681
0.000175585
-0.0300479
0.0300789
0.000147826
-0.0283656
0.0283934
0.000119856
-0.0267695
0.0267975
9.52156e-05
-0.0252736
0.0252983
7.03304e-05
-0.0238534
0.0238783
4.87507e-05
-0.0225229
0.0225445
2.46097e-05
-0.0212583
0.0212825
2.7741e-06
-0.0200705
0.0200924
-1.80905e-05
-0.0189487
0.0189696
-3.82617e-05
-0.0178897
0.0179098
-5.73021e-05
-0.0168907
0.0169098
-7.53727e-05
-0.0159476
0.0159656
-9.28237e-05
-0.0150577
0.0150751
-0.000109334
-0.0142176
0.0142341
-0.000125108
-0.0134247
0.0134405
-0.000139649
-0.0126765
0.012691
-0.00015403
-0.0119698
0.0119842
-0.000167102
-0.0113033
0.0113164
-0.000179287
-0.0106737
0.0106859
-0.000190538
-0.0100801
0.0100913
-0.000201091
-0.00951961
0.00953016
-0.000210982
-0.00899084
0.00900074
-0.000220263
-0.00849163
0.00850091
-0.000228224
-0.00802119
0.00802915
-0.000235669
-0.00757717
0.00758462
-0.00024256
-0.00715886
0.00716575
-0.000248464
-0.00676386
0.00676976
-0.000253256
-0.00639246
0.00639726
-0.000258145
-0.00604144
0.00604633
-0.000261995
-0.0057115
0.00571534
-0.000264801
-0.00540082
0.00540363
-0.000267602
-0.00510726
0.00511007
-0.000269426
-0.00483227
0.0048341
-0.000270312
-0.00457233
0.00457322
-0.000270992
-0.00432781
0.00432849
-0.000270412
-0.00409834
0.00409776
-0.000269347
-0.0038821
0.00388103
-0.000266731
-0.00367908
0.00367646
-0.00026364
-0.00348693
0.00348384
-0.000260036
-0.00330661
0.00330301
-0.000254223
-0.00313701
0.0031312
-0.000247256
-0.00297726
0.00297029
-0.000238595
-0.00282593
0.00281727
-0.000227729
-0.00268487
0.002674
-0.000214348
-0.00254945
0.00253606
-0.000198301
-0.00242467
0.00240862
-0.000177889
-0.00230084
0.00228043
-0.000156554
-0.0022062
0.00218487
-0.000131925
-0.00214555
0.00212092
-7.30948e-05
-0.00206488
0.00200605
-0.00118506
0.00111197
0.0129143
-0.490537
0.0126292
-0.46227
0.0122066
-0.435806
0.0116802
-0.410955
0.0111546
-0.38758
0.0106293
-0.365583
0.0100702
-0.344826
0.00954601
-0.325276
0.00898778
-0.306829
0.00849907
-0.289486
0.00801077
-0.273075
0.0075228
-0.257595
0.00710429
-0.243048
0.00668605
-0.229295
0.00630264
-0.216337
0.00593329
-0.204073
0.00558834
-0.19254
0.0052574
-0.181644
0.00494392
-0.171373
0.00465133
-0.161679
0.00437271
-0.152534
0.0041115
-0.143908
0.00386424
-0.135768
0.00363437
-0.128092
0.00341151
-0.120845
0.00320603
-0.114016
0.00300755
-0.107567
0.00282642
-0.101487
0.00265227
-0.0957505
0.00248508
-0.0903352
0.00233175
-0.0852311
0.00218882
-0.0804175
0.00204935
-0.0758703
0.00192024
-0.0715859
0.00179456
-0.0675402
0.00167921
-0.0637299
0.0015707
-0.0601306
0.00146557
-0.0567355
0.00136726
-0.0535376
0.00127574
-0.0505163
0.00118757
-0.0476681
0.00110266
-0.044979
0.00102798
-0.0424491
0.000949645
-0.0400543
0.000881489
-0.0378047
0.00081312
-0.0356728
0.000751495
-0.0336723
0.000689648
-0.0317755
0.000634522
-0.0299928
0.000575709
-0.0283068
0.000527073
-0.0267209
0.000478254
-0.0252248
0.000432715
-0.0238079
0.000383583
-0.0224738
0.000343381
-0.0212181
0.000303058
-0.0200302
0.000264687
-0.0189103
0.000228474
-0.0178534
0.000193578
-0.0168558
0.000160847
-0.0159148
0.000129586
-0.0150264
9.98923e-05
-0.0141879
7.2002e-05
-0.0133968
4.54233e-05
-0.0126499
2.08564e-05
-0.0119452
-2.75972e-06
-0.0112797
-2.47534e-05
-0.0106517
-4.55166e-05
-0.0100593
-6.47569e-05
-0.00950037
-8.28279e-05
-0.00897277
-9.97939e-05
-0.00847466
-0.000115117
-0.00800587
-0.000129372
-0.00756292
-0.000143203
-0.00714502
-0.000154975
-0.00675209
-0.000166693
-0.00638075
-0.000176664
-0.00603147
-0.000185888
-0.00570227
-0.000194408
-0.0053923
-0.000200886
-0.00510079
-0.000207763
-0.00482539
-0.000213011
-0.00456708
-0.000216953
-0.00432387
-0.000220008
-0.00409529
-0.000222581
-0.00387953
-0.000224765
-0.0036769
-0.000224583
-0.00348711
-0.000222902
-0.00330829
-0.000220384
-0.00313953
-0.000216117
-0.00298152
-0.00020995
-0.0028321
-0.000201511
-0.00269331
-0.000190518
-0.00256044
-0.000175498
-0.00243969
-0.000157524
-0.00231882
-0.000137282
-0.00222644
-0.000117453
-0.00216538
-6.7199e-05
-0.00211513
-0.00125226
0.0208957
-0.489702
0.0200241
-0.461399
0.0191526
-0.434935
0.018212
-0.410014
0.0173066
-0.386675
0.0163669
-0.364644
0.0154969
-0.343956
0.0146273
-0.324406
0.0138273
-0.306029
0.0130276
-0.288686
0.0122974
-0.272344
0.0116367
-0.256935
0.0109417
-0.242353
0.0103161
-0.22867
0.00969078
-0.215712
0.00914862
-0.20353
0.00861356
-0.192005
0.00811326
-0.181144
0.00764077
-0.1709
0.00719262
-0.161231
0.00677227
-0.152114
0.00637277
-0.143508
0.00599759
-0.135393
0.00564326
-0.127738
0.00530976
-0.120511
0.00499363
-0.113699
0.00469831
-0.107271
0.00441689
-0.101206
0.00414935
-0.095483
0.00390261
-0.0900885
0.00366626
-0.0849948
0.00344029
-0.0801916
0.00323163
-0.0756616
0.00303332
-0.0713876
0.00284881
-0.0673557
0.00267118
-0.0635522
0.00250385
-0.0599632
0.0023468
-0.0565784
0.00219658
-0.0533874
0.00205662
-0.0503763
0.00192344
-0.0475349
0.00180047
-0.044856
0.00168082
-0.0423295
0.00157138
-0.0399448
0.00146174
-0.0376951
0.00136229
-0.0355733
0.00126607
-0.0335761
0.00117659
-0.031686
0.00109037
-0.0299066
0.00101089
-0.0282273
0.000934682
-0.0266447
0.000858258
-0.0251484
0.000792109
-0.0237417
0.000725752
-0.0224074
0.000664198
-0.0211566
0.000605302
-0.0199713
0.00054912
-0.0188542
0.000495991
-0.0178003
0.000445978
-0.0168058
0.000398209
-0.0158671
0.000352857
-0.014981
0.000310448
-0.0141455
0.000269822
-0.0133562
0.000231882
-0.012612
0.000195581
-0.0119089
0.000161604
-0.0112457
0.000129769
-0.0106199
9.99588e-05
-0.0100295
7.15146e-05
-0.00947193
4.48897e-05
-0.00894615
2.06229e-05
-0.00845039
-2.6161e-06
-0.00798263
-2.44879e-05
-0.00754104
-4.42008e-05
-0.00712531
-6.28494e-05
-0.00673344
-7.99995e-05
-0.0063636
-9.57367e-05
-0.00601573
-0.00011031
-0.0056877
-0.000123486
-0.00537913
-0.000136018
-0.00508825
-0.000146888
-0.00481452
-0.000156466
-0.0045575
-0.000164739
-0.00431559
-0.000172179
-0.00408785
-0.000177941
-0.00387377
-0.000182187
-0.00367265
-0.000185194
-0.00348411
-0.000187422
-0.00330606
-0.000187781
-0.00313917
-0.000186161
-0.00298314
-0.00018208
-0.00283618
-0.000176048
-0.00269934
-0.000167405
-0.00256908
-0.000155256
-0.00245184
-0.00013957
-0.0023345
-0.00012033
-0.00224568
-0.000104226
-0.00218148
-6.12862e-05
-0.00215807
-0.00131355
0.0289461
-0.488281
0.0275569
-0.460009
0.026133
-0.433511
0.0248128
-0.408694
0.0234929
-0.385355
0.022208
-0.363359
0.0209925
-0.342741
0.0198121
-0.323226
0.0187011
-0.304918
0.0176596
-0.287645
0.016653
-0.271338
0.0156813
-0.255963
0.014779
-0.241451
0.013946
-0.227837
0.0131479
-0.214913
0.0123742
-0.202757
0.0116594
-0.191291
0.0109863
-0.180471
0.0103479
-0.170262
0.00974763
-0.16063
0.00917863
-0.151545
0.00864433
-0.142974
0.00814123
-0.13489
0.00766244
-0.127259
0.00721485
-0.120064
0.00679153
-0.113276
0.00638901
-0.106869
0.00601423
-0.100831
0.00565677
-0.0951255
0.00532009
-0.0897518
0.00500419
-0.0846789
0.00470904
-0.0798964
0.00442427
-0.0753768
0.00416023
-0.0711235
0.00390652
-0.067102
0.00367006
-0.0633158
0.00344737
-0.0597406
0.00323497
-0.056366
0.00303629
-0.0531887
0.00284788
-0.0501879
0.00266971
-0.0473567
0.00250181
-0.0446881
0.00234062
-0.0421683
0.00218967
-0.0397939
0.00204892
-0.0375543
0.00191488
-0.0354393
0.0017876
-0.0334488
0.00166705
-0.0315655
0.00155318
-0.0297927
0.00144609
-0.0281202
0.00134224
-0.0265409
0.00124868
-0.0250548
0.00115489
-0.0236479
0.00107141
-0.0223239
0.000986028
-0.0210712
0.000908157
-0.0198934
0.000834867
-0.0187809
0.000764906
-0.0177303
0.000698485
-0.0167394
0.000636129
-0.0158047
0.000577041
-0.014922
0.000520879
-0.0140893
0.000468339
-0.0133036
0.000418012
-0.0125617
0.000370914
-0.0118618
0.000326447
-0.0112012
0.000284536
-0.010578
0.000245225
-0.00999021
0.000207935
-0.00943464
0.000173325
-0.00891154
0.000140298
-0.00841737
0.000109568
-0.0079519
8.12618e-05
-0.00751274
5.46368e-05
-0.00709869
2.92841e-05
-0.00670809
6.1144e-06
-0.00634043
-1.55974e-05
-0.00599402
-3.51844e-05
-0.00566811
-5.40891e-05
-0.00536022
-7.06061e-05
-0.00507174
-8.57834e-05
-0.00479935
-9.96604e-05
-0.00454363
-0.000112282
-0.00430297
-0.000123687
-0.00407644
-0.000133042
-0.00386441
-0.00014123
-0.00366446
-0.00014828
-0.00347706
-0.000152925
-0.00330142
-0.000155665
-0.00313643
-0.0001568
-0.00298201
-0.000155229
-0.00283775
-0.000152264
-0.0027023
-0.00014547
-0.00257588
-0.000135777
-0.00246153
-0.000121543
-0.00234874
-0.000104766
-0.00226246
-9.20844e-05
-0.00219417
-5.664e-05
-0.00219352
-0.00137019
0.0369619
-0.486238
0.0350205
-0.458068
0.0331824
-0.431673
0.0314133
-0.406925
0.0296791
-0.383621
0.0280489
-0.361728
0.026488
-0.34118
0.0249967
-0.321734
0.0236094
-0.30353
0.0222224
-0.286258
0.020974
-0.270089
0.0197604
-0.254749
0.0186507
-0.240341
0.0175759
-0.226762
0.0165704
-0.213908
0.015617
-0.201803
0.0147156
-0.190389
0.0138662
-0.179621
0.0130653
-0.169461
0.0123096
-0.159875
0.0115988
-0.150834
0.0109263
-0.142301
0.0102883
-0.134252
0.009692
-0.126663
0.00912686
-0.119499
0.0085929
-0.112742
0.00809358
-0.106369
0.00761505
-0.100353
0.00717114
-0.0946816
0.006748
-0.0893287
0.00635254
-0.0842834
0.00597093
-0.0795148
0.00562042
-0.0750263
0.00528372
-0.0707868
0.00496774
-0.0667861
0.004669
-0.063017
0.00438748
-0.059459
0.00412318
-0.0561017
0.00387262
-0.0529382
0.00363577
-0.0499511
0.00341264
-0.0471336
0.00319972
-0.0444752
0.00300052
-0.0419691
0.00281498
-0.0396083
0.00263619
-0.0373755
0.0024676
-0.0352707
0.00230574
-0.0332869
0.00215754
-0.0314173
0.00201611
-0.0296513
0.00188139
-0.0279855
0.00175342
-0.0264129
0.00163218
-0.0249336
0.0015178
-0.0235336
0.00141015
-0.0222163
0.00130865
-0.0209697
0.00121194
-0.0197967
0.00111996
-0.0186889
0.00103352
-0.0176439
0.000951924
-0.0166578
0.000874202
-0.015727
0.000801045
-0.0148488
0.000731742
-0.01402
0.000666144
-0.013238
0.000604361
-0.0124999
0.000546035
-0.0118035
0.000491036
-0.0111462
0.000439185
-0.0105261
0.000390195
-0.00994122
0.000344253
-0.00938869
0.00030097
-0.00886826
0.000260498
-0.00837689
0.000222249
-0.00791365
0.000186029
-0.00747652
0.000152383
-0.00706504
0.000121392
-0.0066771
9.21451e-05
-0.00631118
6.48382e-05
-0.00596671
3.88683e-05
-0.00564214
1.60035e-05
-0.00533736
-6.1917e-06
-0.00504954
-2.60363e-05
-0.0047795
-4.46209e-05
-0.00452504
-6.11855e-05
-0.00428641
-7.61301e-05
-0.0040615
-8.95117e-05
-0.00385103
-0.00010103
-0.00365294
-0.000110349
-0.00346774
-0.00011846
-0.00329331
-0.000124077
-0.00313082
-0.000127945
-0.00297814
-0.000130088
-0.00283561
-0.000128568
-0.00270382
-0.000124261
-0.00258018
-0.000117083
-0.00246871
-0.000106566
-0.00235925
-9.13832e-05
-0.00227764
-8.03499e-05
-0.0022052
-5.12817e-05
-0.00222259
-0.00142147
0.0450122
-0.483643
0.0425531
-0.455609
0.0402316
-0.429351
0.0380138
-0.404707
0.0358997
-0.381507
0.0339242
-0.359753
0.0319834
-0.339239
0.0302158
-0.319967
0.0284484
-0.301763
0.0268888
-0.284698
0.0253294
-0.26853
0.0239085
-0.253329
0.0225224
-0.238955
0.0212057
-0.225445
0.0199929
-0.212695
0.0188632
-0.200674
0.0177786
-0.189305
0.0167564
-0.178599
0.0157897
-0.168494
0.0148784
-0.158963
0.014019
-0.149975
0.0132082
-0.14149
0.0124458
-0.13349
0.011725
-0.125942
0.0110458
-0.118819
0.0104012
-0.112098
0.00979468
-0.105763
0.00922624
-0.0997842
0.00868551
-0.0941409
0.00817937
-0.0888225
0.00769399
-0.083798
0.00724665
-0.0790675
0.00681659
-0.0745962
0.00641418
-0.0703844
0.00603247
-0.0664043
0.0056749
-0.0626595
0.00533458
-0.0591187
0.00501491
-0.0557821
0.00471245
-0.0526357
0.00442717
-0.0496658
0.00415905
-0.0468655
0.00390467
-0.0442208
0.00366395
-0.0417284
0.00343691
-0.0393813
0.00322006
-0.0371587
0.00302036
-0.035071
0.0028309
-0.0330975
0.00264814
-0.0312345
0.00247562
-0.0294788
0.00231673
-0.0278266
0.00216465
-0.0262608
0.00201931
-0.0247882
0.00188077
-0.023395
0.0017525
-0.022088
0.00163066
-0.0208478
0.00151534
-0.0196814
0.00140613
-0.0185797
0.00130252
-0.0175403
0.00120445
-0.0165597
0.00111199
-0.0156345
0.00102468
-0.0147615
0.000942002
-0.0139373
0.000863831
-0.0131599
0.000790492
-0.0124265
0.000720697
-0.0117337
0.000655238
-0.0110808
0.000593345
-0.0104642
0.000534732
-0.0098826
0.000479799
-0.00933376
0.000428016
-0.00881647
0.000379201
-0.00832808
0.000333636
-0.00786809
0.000290662
-0.00743354
0.000250482
-0.00702486
0.000212383
-0.006639
0.000176963
-0.00627576
0.000143931
-0.00593368
0.000113349
-0.00561156
8.44793e-05
-0.00530849
5.76337e-05
-0.00502269
3.31292e-05
-0.004755
1.02712e-05
-0.00450218
-1.06395e-05
-0.0042655
-2.8819e-05
-0.00404332
-4.61528e-05
-0.0038337
-6.11341e-05
-0.00363796
-7.4246e-05
-0.00345462
-8.55819e-05
-0.00328197
-9.4065e-05
-0.00312233
-0.000101322
-0.00297088
-0.000104423
-0.00283251
-0.000106044
-0.0027022
-0.000104776
-0.00258145
-0.000100098
-0.00247338
-9.1148e-05
-0.0023682
-7.8318e-05
-0.00229047
-7.1541e-05
-0.00221198
-4.73584e-05
-0.00224677
-0.00146883
0.0529933
-0.480496
0.0500855
-0.452701
0.0472808
-0.426547
0.0446141
-0.40204
0.0421202
-0.379013
0.0397302
-0.357363
0.0375132
-0.337022
0.0353656
-0.317819
0.0333911
-0.299789
0.0314514
-0.282758
0.0296847
-0.266763
0.0279874
-0.251631
0.0263941
-0.237362
0.0249046
-0.223956
0.0234844
-0.211275
0.0221094
-0.199298
0.0208417
-0.188037
0.0196432
-0.177401
0.018514
-0.167365
0.0174506
-0.1579
0.0164426
-0.148967
0.015497
-0.140545
0.0146033
-0.132596
0.0137546
-0.125093
0.0129578
-0.118023
0.0122095
-0.111349
0.0114992
-0.105053
0.0108305
-0.0991155
0.0101999
-0.0935103
0.00960385
-0.0882265
0.00904584
-0.08324
0.00851205
-0.0785337
0.00801281
-0.074097
0.0075412
-0.0699128
0.00709721
-0.0659604
0.00667395
-0.0622362
0.00628172
-0.0587265
0.00590671
-0.0554071
0.00555234
-0.0522813
0.00521865
-0.0493321
0.00490211
-0.0465489
0.00460619
-0.0439249
0.00432744
-0.0414496
0.0040589
-0.0391128
0.00381098
-0.0369108
0.00357326
-0.0348333
0.00334922
-0.0328734
0.00313884
-0.0310241
0.00294213
-0.0292821
0.00274874
-0.0276332
0.00257251
-0.0260846
0.00240302
-0.0246187
0.00224723
-0.0232392
0.00209446
-0.0219352
0.00195304
-0.0207064
0.00181808
-0.0195465
0.00169109
-0.0184527
0.00157096
-0.0174202
0.0014573
-0.0164461
0.00134966
-0.0155269
0.00124795
-0.0146598
0.00115215
-0.0138415
0.0010614
-0.0130691
0.000975592
-0.0123407
0.000895037
-0.0116532
0.000818721
-0.0110045
0.000746761
-0.0103923
0.000678816
-0.00981466
0.0006151
-0.00927004
0.000554871
-0.00875624
0.000498061
-0.00827127
0.000444727
-0.00781475
0.000394931
-0.00738375
0.000347434
-0.00697736
0.000303226
-0.00659479
0.000261749
-0.00623428
0.000223084
-0.00589502
0.000186546
-0.00557502
0.000152701
-0.00527464
0.000120872
-0.00499086
9.17252e-05
-0.00472585
6.49288e-05
-0.00447539
3.97196e-05
-0.00424029
1.68221e-05
-0.00402042
-3.30786e-06
-0.00381357
-2.23101e-05
-0.00361896
-3.85077e-05
-0.00343843
-5.26735e-05
-0.00326781
-6.52085e-05
-0.0031098
-7.41186e-05
-0.00296197
-8.10175e-05
-0.00282561
-8.51678e-05
-0.00269805
-8.58322e-05
-0.00258079
-8.37355e-05
-0.00247548
-7.79831e-05
-0.00237395
-6.76517e-05
-0.00230081
-6.17568e-05
-0.00221787
-4.26461e-05
-0.00226588
-0.00151147
0.0609743
-0.476865
0.0575142
-0.449241
0.0542952
-0.423328
0.0512488
-0.398994
0.0483406
-0.376105
0.0456053
-0.354628
0.0430084
-0.334425
0.0405845
-0.315395
0.0382645
-0.297469
0.0361176
-0.280611
0.0340054
-0.264651
0.0320663
-0.249692
0.0302656
-0.235561
0.0284997
-0.22219
0.0268722
-0.209648
0.0253521
-0.197778
0.0239012
-0.186586
0.0225299
-0.176029
0.0212348
-0.16607
0.0200159
-0.156681
0.0188662
-0.147817
0.0177789
-0.139457
0.0167503
-0.131568
0.0157876
-0.124131
0.0148767
-0.117112
0.0140143
-0.110487
0.0132038
-0.104242
0.0124348
-0.0983466
0.0117143
-0.0927897
0.0110318
-0.087544
0.0103873
-0.0825956
0.00978091
-0.0779272
0.00920904
-0.0735251
0.00866826
-0.0693721
0.00815857
-0.0654507
0.00767995
-0.0617576
0.007222
-0.0582685
0.00679509
-0.0549801
0.00638886
-0.0518751
0.00600671
-0.04895
0.00564867
-0.0461909
0.00530779
-0.043584
0.00498406
-0.0411259
0.00468442
-0.0388131
0.00439846
-0.0366248
0.00412618
-0.034561
0.00387105
-0.0326183
0.0036296
-0.0307827
0.00340181
-0.0290543
0.00318771
-0.0274191
0.00298384
-0.0258807
0.00279022
-0.0244251
0.00260687
-0.0230559
0.00243615
-0.0217645
0.00227371
-0.020544
0.0021205
-0.0193933
0.00197525
-0.0183074
0.0018379
-0.0172828
0.00170856
-0.0163167
0.00158602
-0.0154043
0.00147051
-0.0145443
0.00136111
-0.0137321
0.00125793
-0.0129659
0.00116036
-0.0122432
0.0010685
-0.0115613
0.000981276
-0.0109172
0.000899506
-0.0103105
0.000822477
-0.00973763
0.000749295
-0.00919686
0.000680604
-0.00868755
0.000616042
-0.00820671
0.000554675
-0.00775338
0.000497577
-0.00732665
0.000443809
-0.0069236
0.000393228
-0.00654421
0.000345541
-0.0061866
0.000300622
-0.0058501
0.000259101
-0.0055335
0.000219987
-0.00523553
0.000184241
-0.00495512
0.000149772
-0.00469138
0.000118305
-0.00444392
8.91451e-05
-0.00421113
6.23069e-05
-0.00399358
3.77753e-05
-0.00378903
1.5545e-05
-0.00359673
-3.87555e-06
-0.00341901
-2.12832e-05
-0.0032504
-3.56722e-05
-0.00309541
-4.84667e-05
-0.00294918
-5.80557e-05
-0.00281602
-6.482e-05
-0.00269129
-6.85513e-05
-0.00257706
-6.84254e-05
-0.00247561
-6.51947e-05
-0.00237719
-5.73982e-05
-0.0023086
-5.34658e-05
-0.0022218
-3.92664e-05
-0.00228008
-0.00155074
0.0688862
-0.472717
0.0649774
-0.445332
0.061275
-0.419625
0.0577798
-0.395499
0.0545263
-0.372851
0.0514457
-0.351547
0.0485034
-0.331483
0.0457341
-0.312626
0.0431378
-0.294872
0.04068
-0.278154
0.0383952
-0.262366
0.0361796
-0.247477
0.0341026
-0.233484
0.0321639
-0.220251
0.0303256
-0.207809
0.0285878
-0.19604
0.0269468
-0.184945
0.0254028
-0.174485
0.0239487
-0.164616
0.0225708
-0.155303
0.021276
-0.146522
0.0200504
-0.138232
0.0188974
-0.130415
0.0178102
-0.123043
0.0167818
-0.116083
0.0158122
-0.109517
0.014898
-0.103328
0.0140357
-0.0974842
0.0132218
-0.0919758
0.0124529
-0.086775
0.0117289
-0.0818716
0.0110464
-0.0772447
0.0103984
-0.0728772
0.00978844
-0.0687621
0.00921648
-0.0648787
0.00867214
-0.0612132
0.00816231
-0.0577587
0.00768008
-0.0544979
0.00722539
-0.0514204
0.00679483
-0.0485194
0.00638839
-0.0457844
0.00600598
-0.0432016
0.00564427
-0.0407642
0.00530312
-0.038472
0.00497911
-0.0363008
0.00467576
-0.0342577
0.00438947
-0.032332
0.00411695
-0.0305102
0.00385807
-0.0287954
0.00361638
-0.0271774
0.00338833
-0.0256527
0.00317405
-0.0242108
0.00296999
-0.0228518
0.0027759
-0.0215704
0.00259343
-0.0203615
0.002421
-0.0192208
0.00225814
-0.0181446
0.00210427
-0.0171289
0.00195867
-0.0161711
0.00182149
-0.0152672
0.00169153
-0.0144143
0.00156892
-0.0136095
0.00145331
-0.0128503
0.00134399
-0.0121338
0.00124048
-0.0114578
0.00114333
-0.0108201
0.00105113
-0.0102183
0.000964173
-0.00965067
0.000882567
-0.00911526
0.000805626
-0.00861061
0.000732952
-0.00813403
0.000664689
-0.00768512
0.000599763
-0.00726172
0.000539062
-0.0068629
0.000481971
-0.00648712
0.000428702
-0.00613333
0.000378536
-0.00579993
0.000331098
-0.00548606
0.000286699
-0.00519113
0.000245307
-0.00491373
0.000206908
-0.00465298
0.000170811
-0.00440782
0.000137716
-0.00417803
0.000106949
-0.00396281
7.83755e-05
-0.00376046
5.34124e-05
-0.00357177
2.99331e-05
-0.00339553
9.08981e-06
-0.00322956
-8.84272e-06
-0.00307748
-2.38765e-05
-0.00293414
-3.55478e-05
-0.00280435
-4.54974e-05
-0.00268134
-5.10672e-05
-0.00257149
-5.34233e-05
-0.00247325
-5.27573e-05
-0.00237785
-4.81172e-05
-0.00231324
-4.51796e-05
-0.00222474
-3.5002e-05
-0.00229026
-0.00158574
0.0767288
-0.468085
0.0723368
-0.44094
0.0682202
-0.415509
0.0643452
-0.391623
0.0606773
-0.369183
0.0572168
-0.348086
0.0539638
-0.32823
0.0509182
-0.30958
0.0480111
-0.291965
0.0452423
-0.275385
0.0426811
-0.259805
0.0402583
-0.245054
0.0379394
-0.231165
0.0357935
-0.218105
0.0337341
-0.20575
0.0318027
-0.194109
0.0299855
-0.183128
0.0282687
-0.172768
0.0266488
-0.162996
0.0251188
-0.153773
0.0236754
-0.145079
0.0223184
-0.136875
0.0210341
-0.12913
0.0198224
-0.121832
0.01868
-0.114941
0.0176032
-0.108441
0.0165853
-0.10231
0.0156262
-0.0965251
0.0147189
-0.0910685
0.013867
-0.0859231
0.01306
-0.0810646
0.0123014
-0.0764861
0.0115843
-0.0721601
0.0109087
-0.0680864
0.010271
-0.064241
0.00966784
-0.0606101
0.00909921
-0.0571901
0.00856162
-0.0539603
0.00805509
-0.0509139
0.00757956
-0.0480439
0.00712467
-0.0453295
0.0067008
-0.0427778
0.006301
-0.0403644
0.00591838
-0.0380893
0.00555985
-0.0359423
0.00522535
-0.0339232
0.00490112
-0.0320078
0.00460091
-0.03021
0.00431786
-0.0285124
0.00404854
-0.0269081
0.00379292
-0.025397
0.00355447
-0.0239724
0.0033263
-0.0226237
0.00311358
-0.0213577
0.00291115
-0.0201591
0.00271968
-0.0190294
0.00253892
-0.0179638
0.00236853
-0.0169585
0.00220753
-0.0160101
0.00205513
-0.0151148
0.00191139
-0.0142706
0.00177535
-0.0134734
0.00164698
-0.012722
0.00152581
-0.0120127
0.00141146
-0.0113434
0.00130357
-0.0107122
0.00120179
-0.0101165
0.0011056
-0.00955448
0.00101509
-0.00902475
0.000929386
-0.0085249
0.0008488
-0.00805345
0.000772963
-0.00760929
0.000701494
-0.00719025
0.000634103
-0.0067955
0.000570765
-0.00642378
0.000510892
-0.00607345
0.000454514
-0.00574355
0.000402513
-0.00543406
0.000352852
-0.00514147
0.000306529
-0.0048674
0.000263175
-0.00460963
0.000223164
-0.00436781
0.000186152
-0.00414102
0.000150934
-0.0039276
0.000119337
-0.00372886
8.98566e-05
-0.00354229
6.31485e-05
-0.00336882
3.96645e-05
-0.00320607
1.87517e-05
-0.00305656
9.475e-07
-0.00291634
-1.45745e-05
-0.00278883
-2.64495e-05
-0.00266946
-3.45457e-05
-0.00256339
-4.05959e-05
-0.0024672
-4.22528e-05
-0.00237619
-3.89577e-05
-0.00231654
-3.88827e-05
-0.00222482
-3.15299e-05
-0.00229761
-0.00161727
0.0845024
-0.462936
0.0796961
-0.436134
0.0751307
-0.410943
0.0708414
-0.387334
0.0667937
-0.365136
0.0629879
-0.344281
0.0594241
-0.324666
0.0559986
-0.306155
0.0528151
-0.288782
0.0498046
-0.272374
0.046967
-0.256968
0.0442679
-0.242355
0.0417762
-0.228674
0.0393884
-0.215718
0.0371252
-0.203487
0.0350038
-0.191988
0.033
-0.181124
0.0311104
-0.170879
0.0293281
-0.161214
0.0276495
-0.152095
0.0260643
-0.143493
0.0245657
-0.135376
0.0231569
-0.127722
0.0218208
-0.120496
0.0205643
-0.113684
0.0193804
-0.107257
0.0182622
-0.101192
0.0172098
-0.0954726
0.0162126
-0.0900714
0.0152743
-0.0849847
0.0143877
-0.0801781
0.0135496
-0.075648
0.0127634
-0.0713738
0.0120185
-0.0673416
0.0113151
-0.0635377
0.0106532
-0.0599481
0.0100258
-0.0565626
0.00943631
-0.0533709
0.00888133
-0.0503589
0.00835396
-0.0475165
0.00786102
-0.0448366
0.00738875
-0.0423055
0.00694747
-0.0399231
0.00653026
-0.0376721
0.00614059
-0.0355526
0.00576462
-0.0335472
0.0054162
-0.0316594
0.00508492
-0.0298787
0.00477084
-0.0281983
0.00447732
-0.0266146
0.00419755
-0.0251173
0.00393149
-0.0237063
0.00368603
-0.0223782
0.00344851
-0.0211202
0.00322613
-0.0199367
0.00301678
-0.01882
0.0028185
-0.0177656
0.0026312
-0.0167712
0.00245396
-0.0158329
0.00228703
-0.0149478
0.00212928
-0.0141128
0.0019805
-0.0133247
0.00183985
-0.0125813
0.00170672
-0.0118795
0.00158144
-0.0112182
0.00146269
-0.0105935
0.00135085
-0.0100047
0.00124576
-0.00944939
0.00114602
-0.00892501
0.00105226
-0.00843114
0.000963595
-0.00796478
0.000880334
-0.00752603
0.000801751
-0.00711167
0.000727692
-0.00672144
0.000657798
-0.00635388
0.000592195
-0.00600785
0.000530884
-0.00568224
0.000472353
-0.00537553
0.000418123
-0.00508724
0.000367222
-0.0048165
0.000319631
-0.00456204
0.000274632
-0.00432281
0.000232928
-0.00409932
0.000194652
-0.00388932
0.000158453
-0.00369267
0.000125511
-0.00350934
9.5942e-05
-0.00333925
6.88215e-05
-0.00317895
4.49731e-05
-0.00303272
2.38269e-05
-0.00289519
6.17095e-06
-0.00277117
-8.26136e-06
-0.00265503
-1.93967e-05
-0.00255225
-2.72769e-05
-0.00245932
-3.12369e-05
-0.00237223
-3.11228e-05
-0.00231665
-3.24646e-05
-0.00222347
-2.83152e-05
-0.00230176
-0.00164559
0.0922068
-0.457337
0.0869172
-0.430844
0.0819721
-0.405998
0.0772684
-0.38263
0.0728754
-0.360743
0.0686898
-0.340095
0.0647806
-0.320757
0.0610788
-0.302453
0.0576191
-0.285322
0.0543322
-0.269087
0.0512183
-0.253854
0.0483119
-0.239448
0.0455439
-0.225906
0.0429142
-0.213088
0.040492
-0.201064
0.0381771
-0.189673
0.0359937
-0.178941
0.0339348
-0.16882
0.0319935
-0.159273
0.0301594
-0.15026
0.0284291
-0.141763
0.0267991
-0.133746
0.025259
-0.126182
0.0238089
-0.119046
0.0224383
-0.112314
0.0211472
-0.105966
0.0199288
-0.0999734
0.0187761
-0.0943199
0.0176925
-0.0889878
0.0166677
-0.0839599
0.0157017
-0.0792121
0.0147909
-0.0747373
0.013932
-0.0705149
0.013118
-0.0665276
0.0123524
-0.062772
0.0116317
-0.0592274
0.0109489
-0.0558799
0.0103076
-0.0527295
0.0096973
-0.0497486
0.00912493
-0.0469441
0.00858361
-0.0442953
0.00807673
-0.0417986
0.00759394
-0.0394403
0.0071422
-0.0372204
0.00671105
-0.0351215
0.006304
-0.0331402
0.00592445
-0.0312798
0.0055621
-0.0295163
0.00522034
-0.0278565
0.00489926
-0.0262935
0.0045953
-0.0248133
0.00430856
-0.0234196
0.00403555
-0.0221052
0.00378075
-0.0208654
0.00353934
-0.0196953
0.00331039
-0.0185911
0.00309486
-0.01755
0.00289107
-0.0165674
0.00269871
-0.0156405
0.00251702
-0.0147661
0.00234517
-0.013941
0.00218324
-0.0131627
0.00202998
-0.012428
0.00188559
-0.0117352
0.0017494
-0.011082
0.00162077
-0.0104648
0.00149911
-0.00988303
0.00138396
-0.00933425
0.00127586
-0.00881691
0.00117391
-0.00832919
0.00107754
-0.00786841
0.000986542
-0.00743503
0.00090088
-0.00702601
0.00082029
-0.00664085
0.000744725
-0.00627832
0.000672822
-0.00593595
0.000605397
-0.00561482
0.000542293
-0.00531243
0.000482857
-0.0050278
0.000426701
-0.00476035
0.000374149
-0.00450949
0.000325226
-0.00427389
0.000279248
-0.00405334
0.000236944
-0.00384701
0.00019809
-0.00365381
0.000161811
-0.00347306
0.000127955
-0.00330539
9.78203e-05
-0.00314882
7.04448e-05
-0.00300534
4.65081e-05
-0.00287126
2.61347e-05
-0.0027508
8.59911e-06
-0.0026375
-5.01396e-06
-0.00253864
-1.47049e-05
-0.00244963
-2.08958e-05
-0.00236604
-2.38862e-05
-0.00231366
-2.5833e-05
-0.00222153
-2.52423e-05
-0.00230235
-0.00167083
0.0998076
-0.451255
0.0941036
-0.42514
0.0887097
-0.400604
0.0836262
-0.377547
0.0788534
-0.35597
0.074357
-0.335599
0.0701025
-0.316502
0.0661244
-0.298475
0.0623193
-0.281517
0.0587906
-0.265559
0.0554349
-0.250498
0.0522867
-0.2363
0.0492769
-0.222896
0.0464745
-0.210286
0.0438208
-0.198411
0.0413194
-0.187171
0.0389597
-0.176581
0.0367315
-0.166592
0.0346277
-0.157169
0.0326451
-0.148278
0.0307731
-0.139891
0.0290083
-0.131981
0.0273438
-0.124517
0.0257762
-0.117478
0.024295
-0.110833
0.0228933
-0.104564
0.0215746
-0.0986547
0.020332
-0.0930773
0.0191586
-0.0878144
0.0180473
-0.0828487
0.0170052
-0.0781699
0.0160184
-0.0737505
0.0150869
-0.0695834
0.0142107
-0.0656514
0.0133828
-0.0619442
0.0125998
-0.0584444
0.0118652
-0.0551453
0.0111651
-0.0520294
0.0105133
-0.0490968
0.00989249
-0.0463233
0.0093062
-0.043709
0.00875439
-0.0412468
0.0082336
-0.0389195
0.00774035
-0.0367271
0.00727463
-0.0346558
0.00683994
-0.0327055
0.00642585
-0.0308657
0.00603587
-0.0291263
0.00566648
-0.0274871
0.00531773
-0.0259448
0.00498968
-0.0244852
0.00467876
-0.0231087
0.00438675
-0.0218132
0.00410989
-0.0205885
0.00384855
-0.0194339
0.00360203
-0.0183445
0.00336892
-0.0173169
0.00314891
-0.0163474
0.00294095
-0.0154326
0.00274457
-0.0145698
0.0025595
-0.0137559
0.00238425
-0.0129875
0.00221907
-0.0122629
0.00206289
-0.011579
0.00191542
-0.0109345
0.00177644
-0.0103259
0.00164537
-0.00975197
0.00152142
-0.0092103
0.00140464
-0.00870012
0.00129397
-0.00821852
0.00119024
-0.00776468
0.00109207
-0.00733685
0.00099957
-0.00693351
0.000912351
-0.00655364
0.000829913
-0.00619588
0.000752579
-0.00585861
0.000679681
-0.00554192
0.000611026
-0.00524377
0.000546045
-0.00496282
0.000485679
-0.00469998
0.00042891
-0.00445272
0.000375764
-0.00422075
0.000325824
-0.0040034
0.000278811
-0.0038
0.000235896
-0.0036109
0.00019601
-0.00343318
0.000159401
-0.00326878
0.000126131
-0.00311555
9.58199e-05
-0.00297503
6.91257e-05
-0.00284456
4.54674e-05
-0.00272714
2.53639e-05
-0.00261739
9.2676e-06
-0.00252254
-3.36933e-06
-0.00243699
-1.23665e-05
-0.00235705
-1.71372e-05
-0.00230889
-2.03781e-05
-0.00221829
-2.23451e-05
-0.00230038