/*--------------------------------*- C++ -*----------------------------------*\
  =========                 |
  \\      /  F ield         | OpenFOAM: The Open Source CFD Toolbox
   \\    /   O peration     | Website:  https://openfoam.org
    \\  /    A nd           | Version:  9
     \\/     M anipulation  |
\*---------------------------------------------------------------------------*/
FoamFile
{
    format      ascii;
    class       volScalarField;
    location    "3000";
    object      ReThetat;
}
// * * * * * * * * * * * * * * * * * * * * * * * * * * * * * * * * * * * * * //

dimensions      [0 0 0 0 0 0 0];

internalField   nonuniform List<scalar> 
13538
(
1048.78
1357.89
1468.51
1470.92
1471.37
1402.6
1244.11
1207.67
1196.62
1193.11
1191.06
1188.87
1186.4
1184.09
1182.02
1180.26
1178.75
1177.53
1176.59
1175.96
1175.66
1175.7
1176.11
1176.92
1178.15
1179.84
1182.03
1184.77
1188.08
1192.04
1196.67
1202
1208.05
1214.8
1222.19
1230.08
1238.28
1246.51
1254.41
1261.61
1267.72
1272.41
1275.49
1276.86
1276.58
1274.67
1269.59
1264
1258.3
1252.52
1246.67
1240.75
1234.76
1228.7
1222.56
1216.35
1210.05
1203.63
1197.09
1190.39
1183.49
1176.35
1168.92
1161.14
1152.94
1144.24
1134.99
1125.12
1114.57
1103.32
1091.36
1078.79
1065.57
1051.6
1037.09
1022.52
1008.07
993.533
978.801
964.093
949.619
935.441
921.552
907.932
894.553
881.577
868.99
856.647
844.487
832.929
821.481
810.375
793.776
763.091
697.564
640.956
610.025
581.393
571.706
1029.05
1218.82
1467.05
1470.85
1471.14
1437.06
1257.58
1211.04
1196.81
1192.19
1190.08
1188.11
1185.82
1183.58
1181.56
1179.82
1178.35
1177.16
1176.25
1175.63
1175.33
1175.37
1175.77
1176.57
1177.79
1179.47
1181.66
1184.39
1187.72
1191.69
1196.36
1201.75
1207.88
1214.72
1222.21
1230.22
1238.53
1246.86
1254.84
1262.11
1268.27
1273.01
1276.12
1277.53
1277.31
1275.41
1270.53
1265.06
1259.44
1253.73
1247.95
1242.09
1236.16
1230.16
1224.08
1217.91
1211.65
1205.27
1198.74
1192.05
1185.14
1177.98
1170.5
1162.65
1154.35
1145.53
1136.12
1126.08
1115.34
1103.87
1091.69
1078.88
1065.45
1051.29
1036.56
1021.77
1007.18
992.542
977.726
962.935
948.385
934.163
920.269
906.673
893.314
880.327
867.76
855.515
843.422
831.93
820.367
809.464
797.416
773.65
707.019
645.388
613.104
582.641
571.894
1013.88
1207.05
1466.28
1471.15
1471.27
1475.42
1289.07
1220.56
1199.88
1193.24
1190.78
1188.95
1186.8
1184.55
1182.48
1180.68
1179.17
1177.94
1176.99
1176.36
1176.05
1176.09
1176.51
1177.33
1178.61
1180.35
1182.62
1185.46
1188.92
1193.03
1197.85
1203.39
1209.65
1216.61
1224.19
1232.24
1240.55
1248.81
1256.69
1263.82
1269.82
1274.41
1277.41
1278.76
1278.52
1276.66
1271.94
1266.57
1261.02
1255.36
1249.62
1243.8
1237.9
1231.93
1225.87
1219.72
1213.47
1207.08
1200.54
1193.81
1186.85
1179.61
1172.03
1164.04
1155.58
1146.57
1136.94
1126.64
1115.63
1103.86
1091.36
1078.24
1064.54
1050.12
1035.12
1020.06
1005.28
990.522
975.603
960.705
946.079
931.807
917.903
904.341
891.032
878.066
865.518
853.358
841.383
830.029
818.499
807.448
794.607
773.421
714.005
647.612
615.001
583.371
572.01
1001.51
1172.17
1464.92
1471.18
1471.05
1472.75
1330.68
1232.85
1203.44
1194.07
1190.86
1189.08
1187.11
1184.93
1182.84
1181
1179.46
1178.2
1177.23
1176.57
1176.23
1176.24
1176.63
1177.42
1178.67
1180.39
1182.64
1185.45
1188.88
1192.98
1197.78
1203.31
1209.56
1216.51
1224.09
1232.14
1240.45
1248.73
1256.65
1263.83
1269.92
1274.62
1277.76
1279.25
1279.17
1277.57
1273.11
1267.9
1262.44
1256.85
1251.16
1245.38
1239.53
1233.59
1227.56
1221.43
1215.18
1208.8
1202.24
1195.47
1188.45
1181.12
1173.42
1165.28
1156.64
1147.42
1137.55
1126.98
1115.67
1103.59
1090.76
1077.32
1063.33
1048.66
1033.39
1018.08
1003.11
988.249
973.244
958.265
943.578
929.277
915.378
901.867
888.624
875.702
863.183
851.113
839.262
828.05
816.551
805.565
793.104
774.353
719.969
650.005
616.916
584.125
572.129
990.734
1166.02
1464.32
1471.12
1470.9
1472.43
1392.99
1250.54
1208.76
1195.69
1191.25
1189.33
1187.54
1185.46
1183.35
1181.47
1179.88
1178.57
1177.57
1176.86
1176.49
1176.46
1176.81
1177.57
1178.78
1180.47
1182.69
1185.49
1188.9
1192.99
1197.78
1203.3
1209.54
1216.49
1224.06
1232.1
1240.4
1248.69
1256.63
1263.84
1269.99
1274.79
1278.05
1279.7
1279.78
1278.42
1274.29
1269.25
1263.9
1258.38
1252.74
1247.02
1241.2
1235.29
1229.28
1223.16
1216.91
1210.5
1203.91
1197.08
1189.97
1182.53
1174.68
1166.37
1157.52
1148.04
1137.89
1127.02
1115.38
1102.94
1089.76
1075.98
1061.68
1046.73
1031.2
1015.64
1000.49
985.522
970.442
955.393
940.662
926.348
912.472
899.024
885.87
873.016
860.548
848.564
836.852
825.806
814.374
803.424
790.971
774.124
720.573
652.096
618.603
584.811
572.234
981.267
1178.2
1463.82
1471.02
1470.69
1471.8
1463.17
1274.35
1216.32
1198.09
1191.84
1189.51
1187.84
1185.89
1183.8
1181.88
1180.23
1178.87
1177.82
1177.07
1176.64
1176.56
1176.86
1177.57
1178.72
1180.36
1182.53
1185.27
1188.63
1192.66
1197.39
1202.86
1209.05
1215.95
1223.46
1231.47
1239.75
1248.04
1256.01
1263.3
1269.56
1274.51
1277.96
1279.83
1280.14
1279.08
1275.34
1270.54
1265.31
1259.87
1254.3
1248.62
1242.84
1236.96
1230.97
1224.85
1218.59
1212.15
1205.5
1198.59
1191.38
1183.79
1175.78
1167.25
1158.15
1148.39
1137.93
1126.71
1114.71
1101.89
1088.32
1074.17
1059.55
1044.32
1028.52
1012.73
997.419
982.353
967.211
952.119
937.366
923.062
909.221
895.855
882.817
870.059
857.646
845.761
834.204
823.333
812.008
801.119
788.699
773.614
721.711
654.076
620.072
585.443
572.334
972.911
1271.62
1464.01
1471.03
1470.5
1471.46
1474.83
1305.87
1227.47
1201.62
1192.83
1189.75
1188.09
1186.3
1184.27
1182.3
1180.58
1179.17
1178.05
1177.24
1176.75
1176.61
1176.84
1177.48
1178.57
1180.13
1182.23
1184.89
1188.17
1192.11
1196.76
1202.14
1208.25
1215.06
1222.51
1230.45
1238.7
1246.98
1254.98
1262.35
1268.75
1273.89
1277.57
1279.69
1280.28
1279.48
1276.27
1271.75
1266.67
1261.33
1255.83
1250.2
1244.46
1238.6
1232.62
1226.5
1220.21
1213.72
1207
1199.99
1192.64
1184.88
1176.65
1167.88
1158.49
1148.41
1137.59
1125.99
1113.6
1100.37
1086.38
1071.84
1056.89
1041.38
1025.32
1009.31
993.844
978.698
963.514
948.401
933.654
919.386
905.61
892.343
879.445
866.807
854.485
842.698
831.306
820.628
809.423
798.626
786.221
772.636
722.011
656.348
621.434
586.015
572.423
965.714
1154.09
1460.73
1471.28
1470.26
1471.16
1473.35
1351.89
1243.25
1206.56
1194.38
1190.12
1188.28
1186.63
1184.7
1182.72
1180.93
1179.44
1178.25
1177.37
1176.82
1176.6
1176.75
1177.3
1178.3
1179.77
1181.77
1184.33
1187.5
1191.33
1195.86
1201.12
1207.11
1213.8
1221.14
1229
1237.18
1245.44
1253.48
1260.94
1267.5
1272.86
1276.81
1279.23
1280.14
1279.63
1277.02
1272.83
1267.94
1262.72
1257.3
1251.73
1246.03
1240.19
1234.21
1228.06
1221.73
1215.18
1208.36
1201.22
1193.7
1185.74
1177.26
1168.2
1158.48
1148.03
1136.82
1124.8
1111.97
1098.31
1083.88
1068.93
1053.64
1037.85
1021.54
1005.32
989.731
974.53
959.322
944.219
929.509
915.306
901.619
888.478
875.742
863.26
851.049
839.378
828.178
817.685
806.639
795.938
783.574
771.301
721.877
659.544
622.602
586.523
572.507
958.452
1174.63
1462.24
1470.82
1469.97
1470.84
1472.45
1416.51
1264.88
1213.44
1196.72
1190.75
1188.48
1186.91
1185.1
1183.12
1181.28
1179.7
1178.43
1177.48
1176.84
1176.53
1176.59
1177.04
1177.93
1179.3
1181.17
1183.6
1186.64
1190.33
1194.71
1199.81
1205.65
1212.19
1219.38
1227.12
1235.22
1243.44
1251.5
1259.06
1265.79
1271.4
1275.64
1278.41
1279.67
1279.51
1277.54
1273.74
1269.08
1264.01
1258.69
1253.18
1247.51
1241.69
1235.7
1229.52
1223.13
1216.49
1209.54
1202.24
1194.51
1186.3
1177.53
1168.13
1158.04
1147.18
1135.53
1123.06
1109.77
1095.63
1080.74
1065.37
1049.74
1033.67
1017.12
1000.73
985.045
969.809
954.608
939.543
924.91
910.805
897.234
884.246
871.704
859.409
847.337
835.798
824.8
814.516
803.646
793.052
780.784
769.615
721.241
662.358
623.632
586.99
572.577
951.011
1230.82
1464.39
1469.69
1469.66
1470.51
1471.52
1478.6
1292.76
1223.28
1200.11
1191.77
1188.73
1187.13
1185.45
1183.52
1181.62
1179.96
1178.6
1177.55
1176.82
1176.41
1176.37
1176.71
1177.47
1178.7
1180.44
1182.72
1185.59
1189.11
1193.31
1198.23
1203.87
1210.22
1217.23
1224.81
1232.8
1240.96
1249.03
1256.68
1263.58
1269.44
1274.02
1277.16
1278.82
1279.05
1277.74
1274.4
1270.05
1265.16
1259.94
1254.5
1248.87
1243.06
1237.05
1230.82
1224.35
1217.59
1210.49
1202.98
1195.01
1186.5
1177.39
1167.61
1157.09
1145.78
1133.64
1120.67
1106.88
1092.25
1076.88
1061.09
1045.12
1028.77
1012.01
995.479
979.739
964.502
949.337
934.35
919.835
905.865
892.443
879.633
867.322
855.242
843.344
831.963
821.187
811.116
800.44
789.971
777.858
767.596
720.298
665.082
624.481
587.405
572.645
946.539
1218.38
1458.99
1470.8
1469.52
1470.15
1471.18
1473.97
1328.31
1237.68
1204.9
1193.31
1189.12
1187.31
1185.74
1183.9
1181.97
1180.22
1178.75
1177.6
1176.76
1176.25
1176.08
1176.3
1176.92
1178.01
1179.58
1181.68
1184.37
1187.69
1191.67
1196.37
1201.78
1207.9
1214.7
1222.08
1229.91
1237.98
1246.03
1253.75
1260.83
1266.95
1271.88
1275.42
1277.52
1278.18
1277.49
1274.73
1270.75
1266.09
1261.01
1255.66
1250.06
1244.25
1238.21
1231.91
1225.33
1218.42
1211.12
1203.37
1195.1
1186.25
1176.74
1166.52
1155.52
1143.7
1131.04
1117.54
1103.22
1088.07
1072.21
1056
1039.7
1023.1
1006.15
989.521
973.775
958.567
943.475
928.612
914.263
900.468
887.226
874.634
862.575
850.758
839.061
827.863
817.332
807.489
797.026
786.682
774.806
765.295
719.496
667.407
625.224
587.765
572.705
941.443
1164.2
1451.03
1470.32
1469.38
1469.79
1470.74
1473.03
1380.27
1257.43
1211.41
1195.58
1189.77
1187.5
1185.98
1184.24
1182.31
1180.48
1178.9
1177.64
1176.68
1176.05
1175.75
1175.82
1176.3
1177.21
1178.6
1180.51
1182.99
1186.07
1189.81
1194.25
1199.39
1205.25
1211.79
1218.93
1226.56
1234.49
1242.49
1250.26
1257.48
1263.87
1269.14
1273.11
1275.68
1276.82
1276.64
1274.63
1271.11
1266.73
1261.83
1256.57
1251.02
1245.2
1239.11
1232.72
1226
1218.89
1211.35
1203.3
1194.68
1185.42
1175.46
1164.74
1153.22
1140.85
1127.61
1113.54
1098.67
1082.99
1066.62
1050
1033.4
1016.57
999.466
982.803
967.094
951.967
936.987
922.299
908.166
894.594
881.571
869.225
857.471
845.942
834.484
823.502
813.233
803.636
793.385
783.184
771.626
762.676
718.863
668.619
625.83
588.073
572.756
936.516
1143.77
1430.08
1469.2
1469.26
1469.4
1470.3
1471.67
1443.83
1283.23
1220.46
1198.86
1190.81
1187.76
1186.17
1184.54
1182.64
1180.74
1179.05
1177.66
1176.58
1175.81
1175.38
1175.29
1175.6
1176.32
1177.51
1179.21
1181.44
1184.28
1187.74
1191.88
1196.72
1202.27
1208.5
1215.36
1222.74
1230.49
1238.38
1246.15
1253.49
1260.11
1265.74
1270.14
1273.19
1274.85
1275.15
1273.96
1271
1266.97
1262.28
1257.14
1251.64
1245.81
1239.65
1233.14
1226.24
1218.9
1211.06
1202.66
1193.62
1183.89
1173.41
1162.14
1150.03
1137.05
1123.21
1108.54
1093.09
1076.86
1060.01
1043
1026.13
1009.11
991.897
975.256
959.653
944.65
929.838
915.385
901.527
888.226
875.459
863.401
851.981
840.789
829.605
818.872
808.893
799.552
789.518
779.483
768.304
759.762
718.365
669.296
626.284
588.342
572.805
931.685
1151.06
1379.31
1467.58
1468.92
1468.96
1469.83
1470.73
1476.5
1315.08
1233.59
1203.55
1192.37
1188.18
1186.34
1184.79
1182.96
1181.01
1179.21
1177.68
1176.46
1175.55
1174.96
1174.71
1174.83
1175.35
1176.32
1177.78
1179.76
1182.31
1185.47
1189.28
1193.78
1198.97
1204.85
1211.37
1218.44
1225.94
1233.67
1241.38
1248.8
1255.62
1261.57
1266.4
1269.95
1272.14
1272.98
1272.52
1270.24
1266.67
1262.26
1257.26
1251.82
1245.96
1239.71
1233.04
1225.92
1218.29
1210.1
1201.27
1191.76
1181.49
1170.42
1158.53
1145.78
1132.16
1117.67
1102.37
1086.33
1069.55
1052.22
1034.87
1017.79
1000.62
983.359
966.822
951.4
936.573
921.992
907.844
894.322
881.338
868.876
857.151
846.107
835.286
824.417
813.971
804.307
795.233
785.421
775.575
764.807
756.633
717.93
669.612
626.61
588.571
572.842
926.477
1265.19
1459.91
1470.12
1468.21
1468.52
1469.34
1470.24
1473.05
1358.33
1252.42
1210.01
1194.64
1188.85
1186.52
1184.98
1183.24
1181.28
1179.37
1177.7
1176.33
1175.27
1174.51
1174.08
1174.01
1174.32
1175.05
1176.24
1177.94
1180.18
1183
1186.46
1190.57
1195.37
1200.84
1206.97
1213.68
1220.86
1228.35
1235.94
1243.35
1250.31
1256.53
1261.76
1265.81
1268.55
1269.96
1270.06
1268.64
1265.63
1261.57
1256.76
1251.38
1245.5
1239.13
1232.26
1224.86
1216.89
1208.27
1198.96
1188.88
1178
1166.28
1153.71
1140.28
1125.96
1110.79
1094.85
1078.22
1060.9
1043.13
1025.51
1008.27
991.012
973.776
957.429
942.265
927.691
913.405
899.639
886.526
873.911
861.801
850.456
839.843
829.426
818.912
808.799
799.475
790.68
781.092
771.457
761.123
753.318
717.318
669.491
626.827
588.744
572.873
922.507
1158.99
1454.44
1470.1
1467.8
1468.07
1468.84
1469.69
1471.41
1419.34
1277.8
1218.82
1197.93
1189.94
1186.79
1185.13
1183.48
1181.54
1179.55
1177.74
1176.21
1174.97
1174.04
1173.42
1173.14
1173.22
1173.69
1174.61
1176
1177.91
1180.37
1183.43
1187.12
1191.48
1196.5
1202.17
1208.44
1215.23
1222.4
1229.77
1237.09
1244.11
1250.53
1256.11
1260.62
1263.9
1265.88
1266.55
1265.92
1263.6
1259.98
1255.42
1250.12
1244.2
1237.69
1230.58
1222.85
1214.46
1205.35
1195.46
1184.75
1173.18
1160.74
1147.44
1133.27
1118.23
1102.36
1085.77
1068.55
1050.72
1032.58
1014.76
997.456
980.173
963.056
947.01
932.194
917.945
904.044
890.742
878.107
865.925
854.22
843.317
833.171
823.204
813.083
803.347
794.395
785.876
776.52
767.132
757.258
749.822
716.504
669.358
626.936
588.869
572.903
917.886
1149.65
1453.87
1469.04
1467.35
1467.64
1468.33
1469.12
1469.82
1477.71
1309.23
1231.41
1202.7
1191.6
1187.25
1185.28
1183.67
1181.78
1179.73
1177.78
1176.08
1174.67
1173.56
1172.74
1172.23
1172.06
1172.27
1172.89
1173.96
1175.51
1177.58
1180.21
1183.45
1187.32
1191.83
1196.99
1202.75
1209.06
1215.82
1222.86
1229.97
1236.93
1243.46
1249.3
1254.21
1257.99
1260.53
1261.77
1261.73
1260.24
1257.18
1252.92
1247.74
1241.79
1235.11
1227.71
1219.59
1210.7
1201.01
1190.47
1179.05
1166.72
1153.5
1139.41
1124.48
1108.69
1092.12
1074.89
1057.11
1038.81
1020.38
1002.49
985.221
968.001
951.109
935.487
921.118
907.288
893.865
881.117
869.029
857.343
846.113
835.712
826.096
816.606
806.919
797.614
789.058
780.823
771.698
762.593
753.215
746.127
715.468
669.033
626.928
588.98
572.919
915.543
1159.81
1444.22
1468.98
1467.42
1467.22
1467.8
1468.52
1469.28
1472.56
1347.48
1250.08
1209.48
1194.06
1188.03
1185.48
1183.82
1181.99
1179.92
1177.85
1175.98
1174.38
1173.06
1172.03
1171.29
1170.87
1170.8
1171.1
1171.82
1172.99
1174.65
1176.83
1179.57
1182.91
1186.86
1191.44
1196.62
1202.37
1208.59
1215.18
1221.96
1228.72
1235.22
1241.19
1246.38
1250.59
1253.64
1255.43
1255.91
1255.14
1252.73
1248.87
1243.86
1237.88
1231
1223.26
1214.68
1205.23
1194.88
1183.61
1171.39
1158.24
1144.19
1129.29
1113.56
1097.02
1079.76
1061.94
1043.65
1024.96
1006.36
988.551
971.431
954.365
937.833
922.786
908.975
895.665
882.829
870.728
859.26
848.14
837.459
827.641
818.602
809.624
800.419
791.594
783.459
775.499
766.618
757.843
748.994
742.273
714.087
668.599
626.824
589.015
572.937
911.465
1141.96
1436.49
1467.39
1467.19
1466.8
1467.27
1467.92
1468.62
1470.68
1404.26
1275.68
1218.72
1197.62
1189.29
1185.82
1183.94
1182.16
1180.1
1177.94
1175.89
1174.1
1172.57
1171.31
1170.33
1169.65
1169.28
1169.25
1169.61
1170.38
1171.59
1173.29
1175.51
1178.27
1181.61
1185.55
1190.07
1195.15
1200.74
1206.75
1213.04
1219.43
1225.7
1231.63
1236.95
1241.44
1244.89
1247.15
1248.12
1247.76
1246.08
1242.72
1237.94
1231.94
1224.85
1216.73
1207.63
1197.54
1186.46
1174.38
1161.32
1147.3
1132.38
1116.65
1100.13
1082.86
1064.95
1046.59
1027.87
1008.92
990.33
972.781
955.934
939.139
923.134
908.822
895.692
883.018
870.891
859.529
848.763
838.284
828.245
819.091
810.681
802.247
793.569
785.28
777.587
769.895
761.272
752.881
744.602
738.223
712.542
667.985
626.616
589.037
572.942
907.269
1137.11
1447.08
1467.39
1466.31
1466.29
1466.73
1467.31
1467.95
1468.64
1467.91
1307.96
1231.82
1202.81
1191.19
1186.36
1184.07
1182.28
1180.27
1178.04
1175.84
1173.84
1172.09
1170.6
1169.37
1168.4
1167.72
1167.36
1167.33
1167.68
1168.43
1169.62
1171.28
1173.43
1176.12
1179.35
1183.13
1187.45
1192.29
1197.56
1203.19
1209.01
1214.85
1220.5
1225.73
1230.28
1233.95
1236.52
1237.87
1237.9
1236.55
1233.74
1229.26
1223.3
1216
1207.46
1197.79
1187.01
1175.14
1162.2
1148.25
1133.33
1117.56
1101.01
1083.73
1065.77
1047.3
1028.5
1009.48
990.434
972.094
955.022
938.574
922.176
906.909
893.522
881.205
869.298
858.001
847.481
837.503
827.756
818.453
810.06
802.317
794.455
786.36
778.665
771.426
763.993
755.664
747.712
740.038
734.003
710.712
667.242
626.312
589.002
572.948
905.822
1134.3
1434.73
1467.67
1466.68
1465.87
1466.18
1466.69
1467.25
1467.78
1471.98
1346.11
1251.37
1210.18
1193.85
1187.18
1184.24
1182.37
1180.41
1178.16
1175.82
1173.61
1171.63
1169.89
1168.4
1167.15
1166.15
1165.43
1165.01
1164.92
1165.19
1165.84
1166.91
1168.42
1170.39
1172.86
1175.83
1179.3
1183.26
1187.66
1192.43
1197.46
1202.61
1207.71
1212.53
1216.86
1220.46
1223.11
1224.62
1224.85
1223.68
1221.07
1216.9
1211.03
1203.52
1194.57
1184.32
1172.81
1160.12
1146.31
1131.47
1115.68
1099.09
1081.78
1063.8
1045.26
1026.36
1007.27
988.124
969.253
951.467
935.091
919.158
903.329
889.057
876.804
865.443
854.452
844.113
834.546
825.45
816.538
808.081
800.528
793.496
786.224
778.782
771.74
764.958
757.773
749.779
742.346
735.305
729.594
708.66
666.297
625.944
588.928
572.948
1210.51
1451.52
1468.7
1465.65
1465.27
1465.64
1466.07
1466.55
1467.04
1469.07
1402.42
1278.58
1220.04
1197.47
1188.37
1184.52
1182.45
1180.53
1178.29
1175.83
1173.42
1171.2
1169.21
1167.44
1165.89
1164.57
1163.48
1162.66
1162.12
1161.88
1161.98
1162.43
1163.25
1164.48
1166.13
1168.22
1170.74
1173.71
1177.07
1180.79
1184.8
1188.97
1193.18
1197.24
1200.95
1204.09
1206.43
1207.76
1207.89
1206.66
1203.97
1199.73
1193.91
1186.26
1176.93
1166.12
1153.91
1140.43
1125.8
1110.12
1093.55
1076.23
1058.25
1039.72
1020.76
1001.61
982.445
963.449
945.115
928.247
912.778
897.464
882.438
869.494
858.586
848.331
838.422
829.185
820.689
812.582
804.606
797.118
790.492
784.189
777.544
770.825
764.495
758.156
751.217
743.621
736.796
730.407
725.001
706.286
665.23
625.47
588.818
572.943
1425.65
1465.76
1465.68
1464.91
1465.09
1465.45
1465.84
1466.27
1466.7
1467.05
1312.5
1233.64
1202.54
1190.1
1185
1182.59
1180.67
1178.42
1175.87
1173.28
1170.82
1168.56
1166.51
1164.65
1162.99
1161.53
1160.29
1159.28
1158.53
1158.05
1157.86
1157.97
1158.41
1159.2
1160.33
1161.82
1163.67
1165.85
1168.33
1171.06
1173.94
1176.89
1179.76
1182.37
1184.54
1186.06
1186.7
1186.27
1184.57
1181.45
1176.81
1170.55
1162.74
1153.07
1141.81
1128.97
1114.82
1099.48
1083.1
1065.9
1048.03
1029.56
1010.68
991.572
972.449
953.505
935.072
917.772
902.209
887.806
873.231
859.358
848.142
838.783
829.797
821.152
813.18
805.89
798.884
791.948
785.552
779.926
774.359
768.393
762.502
756.923
751.003
744.319
737.204
731.07
725.349
720.222
703.699
663.99
624.898
588.66
572.937
1464.59
1464.54
1464.83
1465.14
1465.48
1465.74
1469.86
1351.14
1253.86
1209.89
1192.64
1185.86
1182.9
1180.85
1178.57
1175.93
1173.16
1170.47
1167.95
1165.62
1163.45
1161.43
1159.59
1157.92
1156.44
1155.16
1154.08
1153.22
1152.59
1152.2
1152.06
1152.18
1152.55
1153.17
1154.02
1155.06
1156.26
1157.56
1158.86
1160.07
1161.05
1161.65
1161.68
1160.98
1159.33
1156.55
1152.48
1146.99
1139.98
1131.4
1121.27
1109.64
1096.31
1081.72
1065.87
1049.03
1031.46
1013.28
994.62
975.756
956.876
938.158
919.884
902.614
886.951
873.044
859.787
846.162
833.981
824.942
817.304
809.786
802.612
796.075
790.132
784.322
778.538
773.368
768.795
763.965
758.759
753.81
749.007
743.465
737.072
730.556
725.187
720.122
715.25
700.897
662.575
624.213
588.476
572.927
1464.01
1464.22
1464.45
1464.69
1464.92
1466.6
1408.57
1282.53
1220.37
1196.64
1187.46
1183.53
1181.14
1178.75
1176.01
1173.08
1170.18
1167.4
1164.77
1162.28
1159.92
1157.69
1155.58
1153.6
1151.76
1150.06
1148.5
1147.09
1145.83
1144.71
1143.73
1142.89
1142.17
1141.53
1140.95
1140.4
1139.8
1139.1
1138.2
1137
1135.4
1133.25
1130.42
1126.74
1122.08
1116.31
1109.29
1100.96
1091.25
1080.16
1067.71
1054.04
1039.23
1023.13
1006.19
988.626
970.525
952.18
933.871
915.709
897.929
881.023
865.748
852.335
840.275
828.21
815.996
806.266
799.837
794.057
788.256
782.774
777.841
773.369
768.832
764.347
760.552
757.047
752.962
748.652
744.774
740.726
735.514
729.481
723.695
719.158
714.716
710.072
697.787
660.983
623.44
588.24
572.919
1463.62
1463.76
1463.91
1464.08
1463.93
1472.51
1319.29
1236.47
1203.44
1190.34
1184.68
1181.57
1178.94
1176.1
1173.05
1169.95
1166.92
1163.99
1161.17
1158.44
1155.8
1153.23
1150.73
1148.3
1145.92
1143.6
1141.36
1139.16
1136.98
1134.82
1132.66
1130.46
1128.19
1125.82
1123.29
1120.55
1117.53
1114.14
1110.3
1105.95
1100.97
1095.27
1088.76
1081.35
1072.98
1063.58
1053.13
1041.61
1029.02
1015.41
1000.88
985.483
969.397
952.777
935.665
918.257
900.944
883.836
867.002
850.959
836.47
824.149
813.4
803.174
792.521
782.664
776.304
772.759
768.978
765.207
761.596
758.425
755.531
752.347
749.368
747.101
744.638
741.339
738.118
735.413
732.043
727.126
721.581
716.674
712.993
709.122
704.686
694.387
659.171
622.551
587.972
572.907
1141.4
1138.25
1135.05
1131.8
1128.45
1125
1121.39
1117.59
1113.55
1109.23
1104.56
1099.48
1093.91
1087.77
1081.01
1073.55
1065.34
1056.31
1046.41
1035.63
1023.95
1011.4
998.008
983.83
968.961
953.485
937.547
921.234
904.707
888.148
871.742
855.667
840.039
824.692
809.955
796.848
786.058
777.358
769.249
760.82
752.419
746.513
744.373
743.647
742.173
740.757
739.053
737.792
736.553
734.855
733.691
733.083
731.582
729.154
727.254
725.751
722.918
718.297
713.436
709.554
706.709
703.334
699.095
690.727
657.126
621.537
587.682
572.899
1127.52
1123.08
1118.42
1113.54
1108.36
1102.83
1096.9
1090.52
1083.59
1076.05
1067.84
1058.89
1049.17
1038.61
1027.18
1014.85
1001.61
987.474
972.488
956.7
940.209
923.11
905.557
887.695
869.729
851.794
834.182
817.123
800.824
785.392
770.915
757.33
745.425
736.57
730.11
724.732
718.855
712.666
708.533
708.611
1112.77
1106.71
1100.27
1093.41
1086.04
1078.14
1069.62
1060.44
1050.55
1039.89
1028.42
1016.1
1002.92
988.86
973.92
958.129
941.541
924.22
906.237
887.713
868.773
849.539
830.168
810.802
791.53
772.669
754.398
736.931
720.497
705.296
691.639
681.129
675.293
670.828
666.911
662.843
660.182
663.191
1088.58
1080.35
1071.51
1062.09
1051.96
1041.13
1029.53
1017.14
1003.93
989.931
975.115
959.514
943.156
926.096
908.404
890.164
871.469
852.429
833.167
813.805
794.517
775.254
756.231
737.743
719.901
702.779
686.522
671
656.232
643.414
631.925
621.825
614.084
609.945
611.051
1068.51
1058.44
1047.73
1036.26
1024.12
1011.19
997.481
983.004
967.801
951.857
935.235
917.986
900.165
881.863
863.17
844.187
825.022
805.798
786.616
767.667
748.648
730.151
712.39
695.368
679.128
663.827
649.167
1034.87
1022.35
1009.15
995.141
980.418
964.982
948.936
932.194
914.896
897.087
878.824
860.211
841.338
822.313
803.235
784.224
765.383
746.905
728.146
710.44
693.578
677.473
662.199
647.921
995.836
981.011
965.518
949.357
932.626
915.275
897.547
879.363
860.832
842.065
823.152
804.196
785.3
766.577
748.129
730.109
918.332
900.635
882.597
864.126
845.453
826.637
807.765
788.947
770.284
751.882
733.841
716.295
869.523
850.94
832.231
813.424
794.644
775.996
757.585
739.512
721.884
704.808
673.733
677.513
683.625
679.029
682.522
684.242
687.322
692.369
695.571
694.561
696.532
704.303
713.992
722.279
727.093
728.439
726.743
722.019
714.252
704.188
695.228
671.223
636.973
648.544
660.217
670.057
678.21
685.723
689.886
692.761
696.473
700.035
703.968
703.661
701.997
705.9
714.337
722.382
727.413
729.079
727.857
724.227
718.3
710.216
701.259
693.489
671.754
608.171
614.324
622.085
631.99
643.262
655.833
668.704
679.426
688.35
696.532
702.877
706.296
710.038
713.466
715.769
714.349
713.024
717.855
724.525
729.217
730.425
728.708
724.976
719.716
713.162
705.666
699.041
692.304
671.897
596.874
599.423
602.685
606.848
611.742
618.296
626.672
637.468
650.95
665.133
679.605
691.513
701.48
710.615
717.233
720.826
724.874
728.039
728.614
726.884
725.218
729.432
732.729
733.101
730.141
724.935
718.664
711.956
705.178
698.962
694.714
690.193
671.089
595.265
596.266
597.78
599.632
602.33
605.808
610.243
615.926
623.05
632.212
644.212
659.198
675.096
691.367
704.556
715.684
725.802
733.102
736.954
741.084
743.62
742.986
740.535
737.475
739.106
737.67
732.823
725.313
716.647
707.997
700.162
693.802
690.003
688.767
686.994
669.463
597.53
597.517
597.88
598.94
600.554
602.815
605.729
609.471
614.247
620.275
627.964
637.964
651.285
668.225
686.117
704.432
719.054
731.519
742.667
750.652
754.709
758.658
760.144
758.395
754.363
748.915
745.375
737.889
727.192
714.921
702.73
691.792
683.258
678.215
677.981
681.112
682.849
667.234
602.826
601.142
600.256
600.24
600.865
602.024
603.767
606.138
609.259
613.269
618.387
624.883
633.187
644.105
658.936
678.088
698.246
718.866
735.074
749.072
761.244
770.018
774.208
777.574
777.545
774.216
767.686
758.619
746.999
731.998
715.083
698.038
682.283
669.119
660.331
657.829
662.721
671.892
678.036
664.559
638.606
625.82
615.983
609.466
605.841
604.063
603.351
603.36
603.999
605.247
607.115
609.664
613.005
617.294
622.773
629.736
638.691
650.613
667.149
688.874
711.609
734.823
752.779
768.53
781.661
791.348
795.514
797.73
795.683
790.069
779.526
764.043
742.61
719.206
696.112
674.34
655.012
639.848
631.229
632.34
644.751
661.615
672.797
661.56
717.5
695.843
675.944
658.069
642.369
629.484
619.525
612.817
609.256
607.392
606.61
606.631
607.333
608.675
610.673
613.392
616.956
621.533
627.386
634.841
644.488
657.508
675.978
700.675
726.326
752.432
772.307
790.053
803.983
814.795
818.687
819.014
814.33
805.29
788.757
763.498
731.315
699.391
670.756
644.733
622.38
606.091
598.114
602.915
625.037
650.952
667.388
658.303
794.679
769.393
744.996
721.63
699.954
680.027
662.112
646.538
633.554
623.474
616.608
612.847
610.889
610.078
610.113
610.868
612.302
614.433
617.328
621.122
625.996
632.234
640.202
650.577
664.796
685.453
713.589
742.527
771.831
793.807
813.801
828.25
840.486
843.747
841.291
833.183
818.818
794.44
756.343
712.945
673.194
640.745
612.128
589.255
574.608
568.116
575.166
606.844
641.015
662.082
654.841
850.455
824.812
798.915
773.681
749.307
726.2
704.51
684.552
666.588
650.89
637.813
627.618
620.579
616.669
614.612
613.761
613.806
614.615
616.142
618.405
621.478
625.508
630.686
637.319
645.816
656.963
672.484
695.612
727.711
760.347
793.143
817.43
839.933
854.475
868.584
870.685
864.447
851.786
829.599
796.072
743.461
688.009
642.939
610.783
583.164
564.788
556.418
552.972
558.879
593.443
632.724
657.09
651.213
1074.28
1069.88
1066.04
1062.55
1059.19
1055.85
1052.58
1049.3
1046.06
1042.82
1039.6
1036.4
1033.22
1030.06
1026.95
1023.87
1020.85
1017.9
1015.02
1012.24
1009.56
1007.01
1004.6
1002.33
1000.23
998.301
996.544
994.959
993.533
992.246
991.071
989.959
988.853
987.684
986.358
984.772
982.802
980.296
977.074
972.918
967.45
957.414
942.782
924.402
903.086
879.644
854.625
829.104
803.563
778.408
754.077
730.915
709.224
689.247
671.244
655.497
642.332
632.014
624.799
620.723
618.562
617.667
617.718
618.578
620.198
622.594
625.848
630.117
635.604
642.642
651.687
663.638
680.575
706.485
743.153
779.909
816.481
843.3
868.571
882.641
899.244
899.482
888.403
869.48
837.046
793.834
724.953
658.711
613.715
587.385
565.379
556.722
556.2
555.332
556.102
585.752
626.479
652.545
647.448
1074.27
1069.9
1066.08
1062.59
1059.23
1055.89
1052.62
1049.35
1046.11
1042.87
1039.67
1036.47
1033.3
1030.15
1027.04
1023.98
1020.97
1018.03
1015.17
1012.4
1009.75
1007.21
1004.82
1002.58
1000.5
998.6
996.873
995.319
993.929
992.681
991.546
990.478
989.42
988.306
987.042
985.527
983.639
981.228
978.125
974.121
968.966
959.748
945.733
927.835
906.879
883.716
859.156
833.798
808.315
783.232
758.966
735.853
714.175
694.19
676.159
660.354
647.1
636.665
629.27
625.021
622.75
621.805
621.858
622.765
624.476
627.005
630.441
634.953
640.753
648.204
657.809
670.605
689.071
718.1
760.003
801.352
841.938
871.546
899.824
912.706
932.647
930.15
913.163
885.468
841.247
788.591
702.099
629.355
591.696
576.626
561.486
560.838
562.278
561.2
559.717
582.737
622.526
648.441
643.567
1074.29
1069.95
1066.14
1062.66
1059.3
1055.96
1052.7
1049.42
1046.2
1042.96
1039.77
1036.57
1033.41
1030.27
1027.18
1024.13
1021.13
1018.21
1015.37
1012.62
1009.99
1007.48
1005.12
1002.91
1000.86
998.996
997.305
995.789
994.439
993.235
992.141
991.118
990.112
989.047
987.842
986.391
984.579
982.259
979.265
975.4
970.467
962.214
948.889
931.493
910.946
888.089
863.71
838.561
813.235
788.265
764.065
741.004
719.344
699.372
681.319
665.468
652.133
641.579
634.001
629.574
627.185
626.186
626.237
627.188
628.987
631.647
635.265
640.019
646.135
654.004
664.18
677.85
697.959
730.466
778.366
824.778
869.587
902.289
933.763
944.643
968.963
962.724
938.819
899.288
843.13
781.675
678.267
604.87
582.613
576.745
564.037
564.543
564.184
563.38
564.927
583.898
620.386
644.286
639.617
1074.3
1069.99
1066.2
1062.72
1059.36
1056.03
1052.77
1049.5
1046.28
1043.05
1039.86
1036.67
1033.52
1030.39
1027.31
1024.27
1021.29
1018.39
1015.56
1012.84
1010.23
1007.74
1005.4
1003.22
1001.21
999.373
997.717
996.238
994.927
993.761
992.711
991.732
990.774
989.76
988.611
987.228
985.488
983.26
980.38
976.651
971.84
964.513
951.938
935.115
915.009
892.513
868.41
843.472
818.312
793.47
769.374
746.376
724.758
704.8
686.739
670.853
657.434
646.764
639.005
634.39
631.878
630.816
630.858
631.849
633.734
636.523
640.323
645.319
651.754
660.04
670.798
685.366
707.24
743.579
798.321
850.313
899.461
935.662
970.453
978.475
1008.38
997.316
965.505
911.142
844.381
774.628
654.722
591.776
583.77
578.327
565.332
564.911
564.701
565.582
570.284
587.388
619.475
639.935
635.616
1074.3
1070.03
1066.26
1062.78
1059.43
1056.09
1052.84
1049.57
1046.36
1043.14
1039.95
1036.77
1033.63
1030.52
1027.45
1024.42
1021.46
1018.57
1015.76
1013.06
1010.47
1008.01
1005.7
1003.54
1001.56
999.755
998.135
996.693
995.418
994.292
993.283
992.349
991.433
990.474
989.381
988.06
986.399
984.259
981.491
977.901
973.266
966.685
954.931
938.74
919.114
897.004
873.205
848.512
823.556
798.87
774.881
751.968
730.417
710.483
692.426
676.507
663.02
652.232
644.291
639.481
636.835
635.703
635.731
636.757
638.723
641.638
645.617
650.857
657.607
666.314
677.652
693.147
716.875
757.435
819.923
878.03
931.506