/*--------------------------------*- C++ -*----------------------------------*\
  =========                 |
  \\      /  F ield         | OpenFOAM: The Open Source CFD Toolbox
   \\    /   O peration     | Website:  https://openfoam.org
    \\  /    A nd           | Version:  9
     \\/     M anipulation  |
\*---------------------------------------------------------------------------*/
FoamFile
{
    format      ascii;
    class       volVectorField;
    location    "3000";
    object      U;
}
// * * * * * * * * * * * * * * * * * * * * * * * * * * * * * * * * * * * * * //

dimensions      [0 1 -1 0 0 0 0];

internalField   nonuniform List<vector> 
13538
(
(1.15176 -2.07178e-05 3.56549e-21)
(1.15193 -5.85416e-05 -7.61707e-21)
(1.15203 -0.000113585 -3.41905e-21)
(1.15211 -0.000166825 7.66407e-21)
(1.15217 -0.000224013 -3.67158e-21)
(1.15223 -0.000282781 -2.33449e-22)
(1.15228 -0.000343691 -3.85158e-21)
(1.15233 -0.000406645 0)
(1.15237 -0.000471942 -1.1406e-22)
(1.15241 -0.000539726 1.20893e-22)
(1.15245 -0.000610311 3.62736e-21)
(1.15248 -0.000683946 -1.01215e-22)
(1.15252 -0.00076096 -1.68383e-21)
(1.15255 -0.00084167 -1.72988e-21)
(1.15258 -0.000926397 -4.45049e-23)
(1.15262 -0.0010155 7.2184e-22)
(1.15265 -0.00110935 -2.67248e-22)
(1.15269 -0.00120829 0)
(1.15272 -0.00131271 -2.6685e-22)
(1.15276 -0.00142303 -2.09154e-22)
(1.1528 -0.00153964 -2.69906e-22)
(1.15284 -0.00166297 0)
(1.15288 -0.00179345 1.18141e-21)
(1.15293 -0.00193158 -1.02213e-21)
(1.15297 -0.00207783 6.28774e-22)
(1.15302 -0.00223274 7.92472e-22)
(1.15308 -0.0023969 0)
(1.15313 -0.00257096 1.28419e-21)
(1.1532 -0.00275564 1.4026e-21)
(1.15327 -0.00295177 1.74367e-21)
(1.15334 -0.00316031 -8.75661e-24)
(1.15343 -0.00338235 9.26278e-22)
(1.15352 -0.00361915 -1.59067e-21)
(1.15362 -0.0038722 1.6264e-21)
(1.15374 -0.00414314 0)
(1.15386 -0.00443399 -3.78844e-22)
(1.15401 -0.00474684 -1.06645e-22)
(1.15417 -0.00508431 2.1507e-21)
(1.15434 -0.00544917 -4.63176e-21)
(1.15454 -0.00584465 -5.41342e-21)
(1.15476 -0.00627426 -3.66276e-21)
(1.155 -0.00674203 -2.57718e-22)
(1.15526 -0.00725219 -4.67443e-21)
(1.15555 -0.00780978 3.72692e-22)
(1.15587 -0.00841977 -2.09794e-22)
(1.15622 -0.00908808 -4.31328e-21)
(1.15659 -0.00982065 -4.51282e-21)
(1.157 -0.0106243 1.22528e-20)
(1.15744 -0.0115059 3.29987e-21)
(1.1579 -0.0124729 -4.45922e-21)
(1.1584 -0.0135328 5.03442e-21)
(1.15892 -0.0146936 5.64979e-22)
(1.15947 -0.0159633 6.73013e-21)
(1.16004 -0.0173497 2.29458e-23)
(1.16064 -0.0188611 -2.7664e-22)
(1.16125 -0.0205049 -4.91452e-21)
(1.16188 -0.0222886 3.69183e-22)
(1.16252 -0.0242188 -7.37915e-21)
(1.16317 -0.0263024 7.63354e-21)
(1.16382 -0.0285449 5.95563e-22)
(1.16448 -0.0309515 3.12049e-22)
(1.16514 -0.0335268 -6.11171e-21)
(1.1658 -0.0362744 0)
(1.16646 -0.0391985 1.47145e-20)
(1.16712 -0.0423006 7.83239e-21)
(1.16778 -0.0455844 9.02912e-22)
(1.16845 -0.0490502 0)
(1.16914 -0.0527011 -5.90594e-21)
(1.16984 -0.0565357 -1.28305e-20)
(1.17058 -0.0605576 0)
(1.17137 -0.0647629 -8.19904e-21)
(1.17222 -0.0691538 8.30168e-21)
(1.17314 -0.073726 9.3355e-21)
(1.17417 -0.0784797 0)
(1.17531 -0.0834056 -6.35502e-21)
(1.1766 -0.0884999 -7.16371e-21)
(1.17806 -0.0937537 6.21297e-23)
(1.17973 -0.0991485 -2.0558e-22)
(1.18163 -0.104675 -9.39603e-21)
(1.1838 -0.110295 -5.54727e-21)
(1.18628 -0.116012 1.25047e-20)
(1.1891 -0.121721 -7.32286e-21)
(1.19228 -0.127505 -8.31255e-21)
(1.19587 -0.133101 9.44241e-21)
(1.19987 -0.138785 1.02568e-20)
(1.20437 -0.143956 -6.10694e-21)
(1.20924 -0.14938 6.95497e-21)
(1.21475 -0.153691 0)
(1.2204 -0.158754 8.97904e-21)
(1.22699 -0.161638 -6.55353e-22)
(1.23316 -0.16646 7.19236e-21)
(1.24099 -0.16717 5.79244e-23)
(1.247 -0.172383 -4.11648e-22)
(1.25599 -0.16976 -4.95655e-22)
(1.26009 -0.176734 0)
(1.28093 -0.168841 -1.99856e-20)
(1.31655 -0.186914 0)
(1.32291 -0.189989 -4.33598e-22)
(0.776266 -0.12428 7.7825e-22)
(1.15174 -2.32254e-05 8.34373e-21)
(1.1519 -6.24021e-05 -1.0807e-21)
(1.152 -0.00011703 8.86586e-21)
(1.15208 -0.00017031 -8.30877e-21)
(1.15215 -0.000226976 -4.86717e-21)
(1.1522 -0.000285737 -3.89294e-21)
(1.15225 -0.000346531 -9.90836e-22)
(1.1523 -0.000409552 5.11549e-21)
(1.15234 -0.000474912 0)
(1.15237 -0.00054284 4.62477e-21)
(1.15241 -0.000613582 3.52898e-22)
(1.15244 -0.000687419 2.50277e-22)
(1.15248 -0.000764648 1.66721e-21)
(1.15251 -0.000845586 3.75657e-21)
(1.15254 -0.000930581 -2.09833e-21)
(1.15257 -0.00101996 -2.66253e-21)
(1.1526 -0.00111409 -9.12306e-22)
(1.15264 -0.00121336 8.81589e-22)
(1.15267 -0.00131816 8.85983e-22)
(1.1527 -0.00142888 0)
(1.15274 -0.00154596 2.77099e-22)
(1.15277 -0.00166984 1.81378e-24)
(1.15281 -0.00180099 -3.95212e-22)
(1.15285 -0.00193989 0)
(1.15289 -0.00208708 0)
(1.15294 -0.00224313 -6.77402e-22)
(1.15299 -0.00240867 -1.60285e-23)
(1.15304 -0.00258439 8.54856e-23)
(1.1531 -0.00277107 0)
(1.15316 -0.00296959 0)
(1.15323 -0.00318096 1.03897e-22)
(1.15331 -0.00340632 -2.38067e-21)
(1.1534 -0.003647 1.36558e-22)
(1.15349 -0.0039045 -1.60334e-21)
(1.1536 -0.00418057 -1.60045e-21)
(1.15371 -0.00447714 -2.38383e-21)
(1.15384 -0.00479649 -2.43735e-21)
(1.15399 -0.00514113 3.21498e-21)
(1.15415 -0.00551389 2.17689e-21)
(1.15433 -0.00591798 1.98882e-21)
(1.15453 -0.00635687 3.45101e-22)
(1.15475 -0.00683453 0)
(1.15499 -0.00735516 4.5896e-21)
(1.15525 -0.0079236 4.88148e-21)
(1.15554 -0.00854482 0)
(1.15585 -0.0092245 3.97437e-21)
(1.15619 -0.0099684 8.97863e-21)
(1.15655 -0.0107831 -5.65107e-21)
(1.15694 -0.0116751 -4.21099e-22)
(1.15736 -0.0126517 -6.16693e-21)
(1.1578 -0.0137201 -1.35894e-20)
(1.15827 -0.014888 6.17093e-21)
(1.15875 -0.0161628 -7.14338e-21)
(1.15926 -0.0175525 0)
(1.15979 -0.0190649 -8.34474e-21)
(1.16033 -0.020707 1.12237e-20)
(1.16088 -0.0224865 -6.59467e-22)
(1.16144 -0.0244099 -5.96269e-21)
(1.16201 -0.0264839 -1.43913e-20)
(1.16258 -0.0287142 8.63007e-21)
(1.16316 -0.0311068 6.01757e-22)
(1.16373 -0.0336657 4.18194e-23)
(1.1643 -0.0363963 1.0537e-20)
(1.16487 -0.0393021 -2.81484e-22)
(1.16544 -0.0423859 -7.89576e-21)
(1.16601 -0.0456521 1.63542e-20)
(1.1666 -0.049102 -9.52858e-21)
(1.16719 -0.0527394 1.05838e-20)
(1.16781 -0.0565634 6.53318e-21)
(1.16846 -0.0605792 -8.15296e-22)
(1.16915 -0.0647841 4.41914e-22)
(1.16991 -0.069182 -8.35557e-22)
(1.17074 -0.0737682 -9.48276e-21)
(1.17167 -0.0785458 -3.25398e-22)
(1.17273 -0.0835065 7.08385e-22)
(1.17393 -0.0886475 -6.4294e-21)
(1.17532 -0.0939612 2.31556e-22)
(1.17691 -0.0994313 -2.44101e-22)
(1.17874 -0.105051 9.51728e-21)
(1.18086 -0.110778 -9.78839e-21)
(1.18329 -0.116626 -6.30147e-21)
(1.18608 -0.122481 1.10021e-22)
(1.18925 -0.128437 -1.15793e-22)
(1.19287 -0.134211 0)
(1.19692 -0.140119 -5.27384e-22)
(1.20149 -0.145478 0)
(1.20647 -0.151189 1.30214e-20)
(1.21212 -0.155643 7.45962e-21)
(1.21794 -0.161085 0)
(1.22477 -0.163981 -3.2346e-22)
(1.23112 -0.169328 3.39881e-22)
(1.23928 -0.169759 -1.26298e-20)
(1.24544 -0.17578 1.49377e-20)
(1.25512 -0.172345 -4.9175e-22)
(1.25885 -0.180394 -1.46798e-22)
(1.27733 -0.170563 1.01126e-20)
(1.30733 -0.190585 0)
(1.33397 -0.197026 0)
(0.809832 -0.135135 -2.95874e-21)
(1.15173 -2.4077e-05 5.12825e-22)
(1.15188 -6.42765e-05 6.93867e-21)
(1.15198 -0.000118502 -7.17296e-21)
(1.15206 -0.000171741 1.07542e-21)
(1.15212 -0.000227822 3.15797e-21)
(1.15217 -0.000286252 1.38349e-22)
(1.15222 -0.00034672 4.99777e-21)
(1.15226 -0.000409483 -7.01627e-22)
(1.1523 -0.000474632 5.69951e-21)
(1.15234 -0.000542399 -5.18712e-21)
(1.15237 -0.000613016 -2.2787e-21)
(1.1524 -0.000686763 0)
(1.15244 -0.000763932 -2.64934e-21)
(1.15247 -0.000844849 -1.8701e-21)
(1.15249 -0.000929844 4.37296e-21)
(1.15252 -0.00101927 2.21898e-21)
(1.15255 -0.00111348 -1.85551e-21)
(1.15258 -0.00121287 -8.03867e-22)
(1.15261 -0.00131783 4.23088e-22)
(1.15264 -0.00142878 -8.51859e-23)
(1.15267 -0.00154615 -3.36624e-22)
(1.15271 -0.00167041 2.81742e-23)
(1.15274 -0.00180203 4.34527e-23)
(1.15278 -0.00194154 -1.58149e-22)
(1.15282 -0.00208949 -7.93695e-23)
(1.15286 -0.00224647 7.181e-22)
(1.1529 -0.00241315 -2.75007e-22)
(1.15295 -0.00259027 0)
(1.153 -0.00277862 -8.74785e-23)
(1.15305 -0.00297913 9.27334e-23)
(1.15312 -0.00319285 -1.50042e-22)
(1.15319 -0.00342096 -9.88678e-22)
(1.15326 -0.00366482 0)
(1.15335 -0.00392596 -1.5316e-22)
(1.15344 -0.00420614 1.74171e-21)
(1.15355 -0.00450735 1.30914e-21)
(1.15366 -0.00483182 1.01114e-21)
(1.15379 -0.0051821 -3.63438e-21)
(1.15394 -0.00556098 8.36315e-22)
(1.1541 -0.00597166 3.24786e-21)
(1.15428 -0.0064176 0)
(1.15447 -0.00690266 4.10493e-22)
(1.15469 -0.00743104 -4.35129e-22)
(1.15493 -0.00800745 -4.81779e-21)
(1.15518 -0.00863676 -7.27247e-22)
(1.15546 -0.00932454 7.71045e-22)
(1.15577 -0.0100765 -4.17773e-21)
(1.15609 -0.0108988 6.23345e-22)
(1.15644 -0.0117981 -6.60807e-22)
(1.15681 -0.0127812 8.10301e-22)
(1.1572 -0.0138551 9.44112e-22)
(1.15761 -0.0150276 6.04782e-22)
(1.15804 -0.0163058 9.47153e-21)
(1.15849 -0.0176972 -5.89855e-21)
(1.15895 -0.0192096 8.6578e-21)
(1.15943 -0.02085 -1.00972e-21)
(1.15991 -0.022626 0)
(1.1604 -0.0245442 1.63621e-20)
(1.16089 -0.026611 6.73018e-21)
(1.16138 -0.028833 0)
(1.16188 -0.0312155 0)
(1.16236 -0.0337641 -9.95821e-21)
(1.16285 -0.0364832 -1.05213e-20)
(1.16333 -0.0393782 -6.3024e-21)
(1.16381 -0.0424518 1.41566e-20)
(1.1643 -0.0457094 -8.79527e-21)
(1.16478 -0.0491524 1.56148e-20)
(1.16528 -0.0527866 -8.15458e-21)
(1.16581 -0.0566118 -1.04731e-20)
(1.16636 -0.0606339 -7.52355e-22)
(1.16696 -0.0648513 7.98526e-22)
(1.16762 -0.0692698 -8.72405e-21)
(1.16835 -0.0738859 4.70753e-22)
(1.16919 -0.0787025 -7.55535e-21)
(1.17015 -0.0837158 -1.04237e-20)
(1.17125 -0.0889195 6.14145e-21)
(1.17254 -0.0943133 -1.25008e-20)
(1.17405 -0.0998775 7.09845e-21)
(1.1758 -0.105609 -8.09032e-21)
(1.17785 -0.111466 1.07366e-20)
(1.18022 -0.117461 -1.12807e-20)
(1.18297 -0.123482 -4.16089e-22)
(1.18612 -0.129625 -1.36485e-20)
(1.18974 -0.135591 0)
(1.19382 -0.141729 -1.02885e-20)
(1.19846 -0.147284 3.34239e-22)
(1.20354 -0.153275 -2.57726e-20)
(1.20934 -0.157879 7.09303e-21)
(1.21533 -0.163669 -8.52148e-21)
(1.22239 -0.166576 -9.6131e-21)
(1.22894 -0.172398 -1.10674e-20)
(1.23744 -0.172549 2.52879e-20)
(1.24376 -0.179281 -1.46583e-20)
(1.25405 -0.175131 1.60195e-20)
(1.25781 -0.184323 7.26937e-23)
(1.27609 -0.173141 -7.65434e-23)
(1.30068 -0.193628 -7.25121e-22)
(1.33749 -0.200641 -1.13873e-20)
(0.828381 -0.142309 2.17918e-20)
(1.15171 -2.46526e-05 9.11051e-21)
(1.15186 -6.58999e-05 0)
(1.15195 -0.000119816 1.11585e-21)
(1.15203 -0.000173102 -1.18318e-21)
(1.15209 -0.000228765 -9.98862e-21)
(1.15214 -0.000286881 1.50356e-20)
(1.15219 -0.000347071 0)
(1.15223 -0.000409583 -4.31306e-21)
(1.15227 -0.000474528 -7.02963e-21)
(1.1523 -0.000542124 1.38403e-21)
(1.15234 -0.000612599 5.8684e-21)
(1.15237 -0.000686237 5.29921e-21)
(1.1524 -0.000763318 6.45281e-22)
(1.15242 -0.000844163 -3.44232e-21)
(1.15245 -0.000929113 -6.0212e-21)
(1.15248 -0.00101851 3.63931e-22)
(1.1525 -0.00111274 2.77536e-21)
(1.15253 -0.00121217 -3.52502e-22)
(1.15256 -0.00131722 -1.09403e-21)
(1.15258 -0.0014283 -1.44487e-22)
(1.15261 -0.00154587 1.53163e-22)
(1.15264 -0.00167039 0)
(1.15267 -0.00180237 0)
(1.1527 -0.00194235 1.68001e-22)
(1.15274 -0.00209089 3.29176e-23)
(1.15277 -0.00224864 -4.71123e-22)
(1.15281 -0.00241627 3.57256e-22)
(1.15285 -0.00259455 -3.65115e-23)
(1.1529 -0.00278432 -1.26488e-22)
(1.15295 -0.00298654 5.3686e-22)
(1.153 -0.0032023 -2.3193e-22)
(1.15306 -0.0034328 1.35963e-21)
(1.15313 -0.00367942 3.46948e-23)
(1.1532 -0.00394375 -1.79837e-22)
(1.15329 -0.00422754 1.71063e-21)
(1.15338 -0.00453281 7.18304e-22)
(1.15348 -0.00486179 1.68702e-21)
(1.1536 -0.00521702 2.45672e-22)
(1.15373 -0.00560131 2.72555e-21)
(1.15387 -0.00601779 -4.06447e-21)
(1.15403 -0.0064699 0)
(1.1542 -0.00696147 -4.60543e-21)
(1.15439 -0.00749661 0)
(1.1546 -0.00807992 -3.99742e-21)
(1.15483 -0.00871621 1.16342e-21)
(1.15508 -0.00941086 4.50521e-21)
(1.15535 -0.0101695 6.23557e-21)
(1.15563 -0.0109982 -6.41814e-21)
(1.15594 -0.0119031 -6.26372e-21)
(1.15626 -0.0128912 6.81419e-21)
(1.15661 -0.0139693 9.3192e-22)
(1.15697 -0.0151444 1.05297e-21)
(1.15734 -0.0164241 -1.23401e-20)
(1.15773 -0.0178154 7.13411e-21)
(1.15812 -0.019326 -5.93152e-21)
(1.15853 -0.0209626 -6.8657e-21)
(1.15894 -0.0227331 7.91212e-21)
(1.15936 -0.0246437 -1.94333e-20)
(1.15977 -0.0267013 -1.03797e-20)
(1.16019 -0.0289125 -1.18205e-20)
(1.1606 -0.0312825 0)
(1.161 -0.0338178 2.11771e-21)
(1.1614 -0.0365229 -2.29306e-21)
(1.1618 -0.0394039 1.253e-21)
(1.16219 -0.0424641 -1.30986e-20)
(1.16258 -0.0457097 -4.4452e-23)
(1.16297 -0.0491424 -6.87478e-21)
(1.16338 -0.0527703 0)
(1.1638 -0.0565924 8.5542e-21)
(1.16426 -0.0606165 1.24439e-21)
(1.16475 -0.0648437 1.07047e-20)
(1.16531 -0.069277 0)
(1.16594 -0.0739179 6.78326e-21)
(1.16667 -0.07877 8.70037e-21)
(1.16753 -0.0838288 9.84492e-21)
(1.16854 -0.0890935 0)
(1.16973 -0.0945618 1.38071e-21)
(1.17114 -0.100217 -7.21593e-21)
(1.1728 -0.106058 8.22179e-21)
(1.17476 -0.112042 5.87109e-22)
(1.17707 -0.118188 1.01623e-20)
(1.17976 -0.124378 -1.06015e-20)
(1.18289 -0.130714 2.66941e-20)
(1.18649 -0.136887 0)
(1.1906 -0.143265 0)
(1.19529 -0.14904 0)
(1.20047 -0.155322 1.27535e-20)
(1.2064 -0.160113 -6.0061e-22)
(1.21257 -0.166267 8.75536e-21)
(1.21986 -0.169224 9.39938e-21)
(1.22662 -0.17553 1.11584e-20)
(1.2355 -0.175447 -1.23834e-20)
(1.24194 -0.182878 1.40762e-20)
(1.25292 -0.178045 -3.18759e-20)
(1.25654 -0.188296 0)
(1.27473 -0.176022 -9.88929e-21)
(1.29314 -0.196579 7.22335e-22)
(1.34097 -0.203419 1.12339e-20)
(0.850076 -0.149038 -4.14271e-20)
(1.1517 -2.49121e-05 -1.68846e-20)
(1.15184 -6.70368e-05 -1.88653e-20)
(1.15193 -0.00012061 0)
(1.152 -0.000173929 0)
(1.15207 -0.000229223 9.87151e-21)
(1.15212 -0.000286989 -1.01812e-20)
(1.15216 -0.000346864 0)
(1.1522 -0.000409066 1.38997e-21)
(1.15224 -0.000473739 -2.18863e-21)
(1.15227 -0.000541087 2.31942e-23)
(1.1523 -0.00061134 -5.02249e-21)
(1.15233 -0.00068477 -5.14345e-21)
(1.15236 -0.000761663 -4.6551e-21)
(1.15238 -0.000842345 2.24121e-21)
(1.15241 -0.00092715 4.32361e-21)
(1.15243 -0.00101642 -8.41169e-22)
(1.15245 -0.00111054 4.3508e-22)
(1.15248 -0.00120989 0)
(1.1525 -0.00131489 3.8037e-21)
(1.15253 -0.00142597 0)
(1.15255 -0.00154358 0)
(1.15258 -0.00166822 -1.88968e-21)
(1.1526 -0.00180039 0)
(1.15263 -0.00194065 0)
(1.15266 -0.00208959 -1.7128e-21)
(1.15269 -0.00224788 4.56685e-22)
(1.15272 -0.00241621 -1.76989e-22)
(1.15276 -0.00259539 3.65526e-23)
(1.1528 -0.00278628 2.38001e-22)
(1.15284 -0.00298987 -4.91867e-22)
(1.15289 -0.00320728 1.81744e-24)
(1.15294 -0.00343975 1.27714e-22)
(1.153 -0.00368867 -1.35391e-22)
(1.15306 -0.00395564 -6.43849e-22)
(1.15313 -0.00424244 -1.69147e-21)
(1.15321 -0.0045511 -2.22181e-21)
(1.1533 -0.00488385 -1.95149e-21)
(1.1534 -0.00524322 1.31002e-21)
(1.15352 -0.00563199 -3.31508e-22)
(1.15364 -0.0060533 -2.9712e-22)
(1.15378 -0.00651049 -2.85341e-21)
(1.15393 -0.0070074 4.55448e-21)
(1.1541 -0.00754798 0)
(1.15428 -0.00813683 2.6011e-21)
(1.15448 -0.00877864 4.87807e-21)
(1.15469 -0.00947864 -9.8978e-21)
(1.15493 -0.0102423 -1.13309e-20)
(1.15517 -0.0110756 6.5013e-21)
(1.15544 -0.0119846 -2.10636e-21)
(1.15572 -0.0129759 -3.18975e-21)
(1.15601 -0.0140561 4.87583e-21)
(1.15632 -0.0152324 -6.30045e-21)
(1.15664 -0.0165117 0)
(1.15697 -0.0179011 0)
(1.1573 -0.0194082 5.86867e-21)
(1.15764 -0.0210395 7.6173e-21)
(1.15799 -0.0228029 -1.44946e-20)
(1.15833 -0.0247046 -8.47327e-22)
(1.15867 -0.0267517 1.14226e-20)
(1.15901 -0.0289507 1.1696e-20)
(1.15934 -0.0313074 0)
(1.15966 -0.0338285 1.45324e-22)
(1.15997 -0.0365188 1.97096e-21)
(1.16028 -0.039385 6.3765e-23)
(1.16058 -0.0424308 -1.21021e-21)
(1.16088 -0.0456635 -1.43361e-21)
(1.16118 -0.049086 1.38648e-20)
(1.16149 -0.0527054 4.69186e-23)
(1.16181 -0.0565244 -8.18863e-21)
(1.16216 -0.0605494 0)
(1.16256 -0.064784 -1.48688e-21)
(1.16301 -0.0692329 0)
(1.16353 -0.0738984 -6.71596e-21)
(1.16416 -0.0787842 0)
(1.1649 -0.0838903 8.53252e-21)
(1.1658 -0.0892152 -9.67873e-21)
(1.16688 -0.0947589 2.1785e-20)
(1.16818 -0.100508 -7.31112e-22)
(1.16975 -0.106459 1.23243e-20)
(1.17162 -0.112577 9.79587e-22)
(1.17385 -0.118876 -9.0135e-21)
(1.17647 -0.125245 1.22959e-20)
(1.17955 -0.131777 -1.41951e-20)
(1.18313 -0.138174 1.343e-20)
(1.18726 -0.144796 2.20608e-21)
(1.19199 -0.150821 -5.40118e-22)
(1.19726 -0.157396 7.95183e-23)
(1.20331 -0.162411 -1.50791e-20)
(1.20966 -0.168922 1.59657e-20)
(1.21719 -0.171977 -1.84275e-20)
(1.22418 -0.178751 7.09667e-22)
(1.23344 -0.178491 -1.29583e-20)
(1.24004 -0.186569 -1.43795e-20)
(1.25172 -0.181136 3.11725e-20)
(1.25522 -0.192347 -1.77803e-20)
(1.27393 -0.179215 9.88129e-21)
(1.28612 -0.19938 -1.21171e-20)
(1.34287 -0.205202 7.23335e-22)
(0.868856 -0.154763 3.68875e-20)
(1.15169 -2.50409e-05 0)
(1.15182 -6.78893e-05 -1.11901e-21)
(1.15191 -0.000121086 2.48923e-21)
(1.15198 -0.000174397 -2.64007e-21)
(1.15204 -0.00022936 1.25708e-20)
(1.15209 -0.000286759 -2.98681e-23)
(1.15213 -0.000346295 -3.19558e-23)
(1.15217 -0.00040815 1.10904e-20)
(1.15221 -0.0004725 -8.11157e-21)
(1.15224 -0.000539539 -5.16195e-21)
(1.15227 -0.000609499 7.06461e-21)
(1.15229 -0.000682655 -8.5803e-22)
(1.15232 -0.000759288 6.79574e-21)
(1.15234 -0.000839721 9.37796e-22)
(1.15236 -0.000924287 -4.0587e-21)
(1.15238 -0.00101334 0)
(1.15241 -0.00110725 -5.3013e-21)
(1.15243 -0.00120642 4.98563e-21)
(1.15245 -0.00131125 1.33449e-21)
(1.15247 -0.00142221 0)
(1.15249 -0.00153973 0)
(1.15251 -0.00166434 1.34671e-21)
(1.15253 -0.00179654 8.1563e-22)
(1.15256 -0.00193691 -5.33848e-22)
(1.15258 -0.00208608 1.96792e-21)
(1.1526 -0.0022447 -2.72903e-21)
(1.15263 -0.00241351 -9.65456e-22)
(1.15266 -0.00259334 -1.17526e-21)
(1.15269 -0.00278507 1.10304e-21)
(1.15273 -0.00298973 0)
(1.15277 -0.00320843 -8.0849e-22)
(1.15281 -0.00344245 -3.68617e-23)
(1.15286 -0.00369321 0)
(1.15292 -0.00396233 6.37231e-22)
(1.15298 -0.00425158 0)
(1.15305 -0.004563 1.49954e-22)
(1.15312 -0.00489881 1.77247e-21)
(1.15321 -0.00526156 -1.00102e-21)
(1.1533 -0.00565398 -2.01913e-21)
(1.15341 -0.00607916 0)
(1.15353 -0.00654045 2.48914e-21)
(1.15366 -0.00704155 -2.2758e-21)
(1.1538 -0.00758645 0)
(1.15396 -0.00817959 6.70998e-22)
(1.15413 -0.00882558 -4.14187e-21)
(1.15431 -0.0095295 8.0563e-21)
(1.15451 -0.0102967 4.57181e-21)
(1.15472 -0.011133 7.5014e-22)
(1.15494 -0.0120444 7.53676e-21)
(1.15517 -0.0130372 2.40725e-21)
(1.15542 -0.014118 1.14194e-21)
(1.15568 -0.0152934 6.23833e-21)
(1.15594 -0.0165707 -8.86523e-22)
(1.15621 -0.0179565 1.97525e-21)
(1.15649 -0.0194583 1.05099e-22)
(1.15676 -0.0210828 8.44557e-21)
(1.15704 -0.0228374 6.67545e-21)
(1.15731 -0.0247287 7.66408e-21)
(1.15758 -0.0267636 0)
(1.15784 -0.0289491 -8.39046e-21)
(1.15809 -0.031291 0)
(1.15833 -0.0337962 6.401e-21)
(1.15856 -0.0364703 0)
(1.15877 -0.03932 0)
(1.15898 -0.0423501 0)
(1.15919 -0.0455685 0)
(1.15939 -0.0489779 -5.19469e-22)
(1.1596 -0.0525882 -1.21364e-20)
(1.15983 -0.0564015 7.1691e-21)
(1.16008 -0.0604257 6.72323e-21)
(1.16036 -0.0646658 -9.02904e-21)
(1.1607 -0.0691272 0)
(1.16112 -0.0738146 1.36963e-21)
(1.16163 -0.0787324 -1.45398e-21)
(1.16226 -0.0838833 -7.42123e-21)
(1.16304 -0.0892673 7.46663e-21)
(1.164 -0.0948844 -7.4914e-21)
(1.16519 -0.100726 -2.64948e-21)
(1.16665 -0.10679 -1.16665e-20)
(1.16841 -0.113043 0)
(1.17054 -0.119496 1.70012e-20)
(1.17309 -0.126051 -1.33543e-21)
(1.17611 -0.132787 -1.07033e-20)
(1.17966 -0.139422 -1.38229e-20)
(1.18378 -0.146293 1.70356e-20)
(1.18854 -0.152595 -1.05688e-20)
(1.1939 -0.159469 7.6292e-22)
(1.20007 -0.164753 9.63767e-23)
(1.2066 -0.171611 -1.70929e-20)
(1.21436 -0.174833 1.74133e-20)
(1.2216 -0.182044 5.7089e-22)
(1.23125 -0.181686 1.30521e-20)
(1.23803 -0.190348 -9.16567e-22)
(1.25044 -0.184414 -1.48846e-20)
(1.25375 -0.196436 1.8375e-20)
(1.27336 -0.182598 0)
(1.27964 -0.20225 -1.13929e-20)
(1.34415 -0.206558 -1.47746e-21)
(0.887372 -0.160112 -1.66276e-20)
(1.15168 -2.50709e-05 0)
(1.1518 -6.84941e-05 4.27628e-20)
(1.15189 -0.000121267 -2.65389e-21)
(1.15196 -0.0001745 1.13424e-20)
(1.15202 -0.000229139 -1.11185e-20)
(1.15206 -0.000286151 1.48216e-21)
(1.15211 -0.00034531 -2.75004e-23)
(1.15214 -0.000406778 -1.41414e-20)
(1.15217 -0.00047075 1.88686e-20)
(1.1522 -0.000537422 1.58484e-20)
(1.15223 -0.00060703 -6.99838e-21)
(1.15226 -0.000679838 -9.42777e-22)
(1.15228 -0.000756131 -7.32014e-21)
(1.1523 -0.000836226 8.67317e-21)
(1.15232 -0.000920462 4.01954e-21)
(1.15234 -0.0010092 -1.09526e-21)
(1.15236 -0.0011028 4.30496e-21)
(1.15238 -0.00120167 -4.37557e-21)
(1.15239 -0.00130623 -8.5934e-21)
(1.15241 -0.00141693 0)
(1.15243 -0.00153424 5.73859e-21)
(1.15245 -0.00165866 2.97659e-21)
(1.15246 -0.00179074 -6.7976e-22)
(1.15248 -0.00193105 7.20612e-22)
(1.1525 -0.00208024 0)
(1.15252 -0.00223899 5.83129e-21)
(1.15254 -0.00240805 -2.22452e-21)
(1.15257 -0.00258826 -5.7349e-22)
(1.15259 -0.00278055 6.48312e-22)
(1.15262 -0.00298593 -1.57954e-22)
(1.15265 -0.00320557 2.66651e-21)
(1.15269 -0.00344074 0)
(1.15273 -0.00369289 1.49946e-21)
(1.15277 -0.00396365 -9.29083e-23)
(1.15282 -0.00425478 1.343e-23)
(1.15288 -0.00456833 -5.87383e-23)
(1.15294 -0.00490653 1.30224e-22)
(1.15301 -0.00527187 0)
(1.15309 -0.0056671 9.58957e-22)
(1.15318 -0.00609525 7.92314e-22)
(1.15328 -0.00655964 4.52761e-22)
(1.15338 -0.00706391 2.12704e-21)
(1.1535 -0.00761195 0)
(1.15363 -0.00820813 0)
(1.15377 -0.00885694 0)
(1.15392 -0.00956342 -6.01084e-23)
(1.15409 -0.0103328 1.36629e-22)
(1.15426 -0.0111706 -4.86734e-21)
(1.15444 -0.0120828 7.19243e-22)
(1.15464 -0.0130755 -7.62636e-22)
(1.15484 -0.0141551 0)
(1.15504 -0.0153282 -1.22564e-21)
(1.15525 -0.0166016 5.77463e-22)
(1.15547 -0.0179821 7.65742e-22)
(1.15568 -0.0194771 9.84859e-22)
(1.1559 -0.0210929 -9.54064e-21)
(1.1561 -0.0228373 -1.20943e-21)
(1.15631 -0.0247166 -5.1957e-21)
(1.1565 -0.0267379 -8.58732e-22)
(1.15668 -0.0289083 8.25412e-21)
(1.15686 -0.0312337 7.59964e-21)
(1.15701 -0.0337218 1.17115e-21)
(1.15716 -0.0363778 1.39983e-21)
(1.15729 -0.0392099 -1.48529e-21)
(1.15741 -0.0422224 6.12265e-21)
(1.15752 -0.0454246 0)
(1.15763 -0.0488203 -8.38787e-21)
(1.15774 -0.0524181 8.93754e-22)
(1.15786 -0.056224 4.7897e-21)
(1.158 -0.0602451 -5.89376e-21)
(1.15818 -0.0644884 -8.23462e-22)
(1.1584 -0.0689601 0)
(1.1587 -0.0736675 0)
(1.15909 -0.0786143 1.28993e-21)
(1.1596 -0.0838084 -6.49275e-21)
(1.16025 -0.089247 -5.94246e-21)
(1.16109 -0.0949377 -7.95008e-21)
(1.16216 -0.100871 -1.1412e-22)
(1.16349 -0.107045 1.09454e-20)
(1.16514 -0.113436 -1.15584e-20)
(1.16717 -0.120047 -7.94401e-21)
(1.16962 -0.126794 -8.34407e-21)
(1.17257 -0.133737 2.13627e-20)
(1.17606 -0.140625 1.39124e-20)
(1.18017 -0.147751 -1.79454e-20)
(1.18494 -0.15436 1.07971e-20)
(1.19038 -0.161529 -1.2931e-21)
(1.19665 -0.167135 0)
(1.20337 -0.174331 -1.50153e-20)
(1.21136 -0.177794 1.19283e-21)
(1.21888 -0.185403 -2.20227e-20)
(1.22892 -0.185044 0)
(1.23592 -0.194218 0)
(1.24905 -0.1879 0)
(1.25221 -0.20058 1.16447e-21)
(1.27301 -0.18617 -2.07947e-20)
(1.2737 -0.205213 2.28369e-20)
(1.34478 -0.20762 0)
(0.903945 -0.164909 -2.04302e-20)
(1.15167 -2.50353e-05 9.82614e-21)
(1.15179 -6.89005e-05 -4.4818e-20)
(1.15187 -0.000121212 -2.54755e-20)
(1.15194 -0.000174285 -8.37323e-21)
(1.15199 -0.00022859 -6.04428e-21)
(1.15204 -0.000285187 1.93446e-20)
(1.15208 -0.000343934 -6.6065e-21)
(1.15211 -0.000404974 -1.08069e-20)
(1.15214 -0.000468517 2.83135e-21)
(1.15217 -0.000534766 -9.16749e-21)
(1.1522 -0.000603949 -8.21889e-21)
(1.15222 -0.000676341 0)
(1.15224 -0.000752219 8.24883e-21)
(1.15226 -0.000831904 -1.80815e-20)
(1.15228 -0.00091573 -9.94807e-21)
(1.15229 -0.00100405 2.76386e-21)
(1.15231 -0.00109724 2.60416e-21)
(1.15233 -0.0011957 0)
(1.15234 -0.00129987 3.86427e-21)
(1.15235 -0.00141019 1.48913e-21)
(1.15237 -0.00152714 -5.6902e-21)
(1.15238 -0.00165124 -6.45356e-21)
(1.1524 -0.00178303 -8.34682e-22)
(1.15241 -0.00192312 -2.97178e-21)
(1.15242 -0.00207214 3.58933e-21)
(1.15244 -0.0022308 1.36563e-21)
(1.15246 -0.00239988 3.40441e-21)
(1.15247 -0.00258022 1.23106e-21)
(1.15249 -0.00277277 -1.70438e-21)
(1.15251 -0.00297856 2.96083e-21)
(1.15254 -0.00319877 -4.12648e-21)
(1.15256 -0.0034347 2.24983e-21)
(1.15259 -0.00368778 -1.14555e-21)
(1.15263 -0.00395967 0)
(1.15267 -0.00425213 -1.12035e-21)
(1.15271 -0.00456721 0)
(1.15276 -0.00490711 -5.60686e-23)
(1.15282 -0.00527433 5.56575e-22)
(1.15288 -0.00567155 -8.76624e-22)
(1.15295 -0.00610179 -9.55824e-22)
(1.15303 -0.00656831 2.38945e-22)
(1.15311 -0.00707469 -6.06474e-22)
(1.15321 -0.0076248 1.55217e-21)
(1.15331 -0.00822282 2.0632e-21)
(1.15342 -0.00887324 -7.88737e-22)
(1.15354 -0.00958094 -4.15772e-21)
(1.15367 -0.010351 5.93835e-22)
(1.15381 -0.0111889 3.80722e-21)
(1.15395 -0.0121003 2.82055e-21)
(1.1541 -0.0130914 5.74351e-22)
(1.15426 -0.0141681 -5.87313e-21)
(1.15441 -0.0153372 -2.22554e-21)
(1.15457 -0.0166052 1.12561e-21)
(1.15473 -0.0179789 -5.54667e-21)
(1.15489 -0.0194653 -7.73591e-22)
(1.15504 -0.021071 8.20443e-22)
(1.15518 -0.0228035 -1.03584e-21)
(1.15531 -0.0246691 1.14306e-20)
(1.15544 -0.0266752 -1.26031e-21)
(1.15554 -0.028829 5.19436e-21)
(1.15564 -0.0311364 -6.74115e-21)
(1.15571 -0.0336055 -7.55497e-21)
(1.15577 -0.0362424 7.44902e-21)
(1.15582 -0.0390547 0)
(1.15585 -0.042048 -7.45509e-21)
(1.15586 -0.0452324 1.46159e-21)
(1.15587 -0.0486111 0)
(1.15588 -0.0521958 2.02645e-21)
(1.1559 -0.0559913 -3.67927e-21)
(1.15593 -0.0600074 -1.14309e-21)
(1.156 -0.06425 0)
(1.15611 -0.0687302 -5.19253e-21)
(1.15629 -0.0734535 0)
(1.15655 -0.0784269 -6.83578e-21)
(1.15693 -0.0836594 5.08956e-21)
(1.15745 -0.0891525 5.90427e-21)
(1.15816 -0.0949129 6.90092e-21)
(1.15909 -0.100935 0)
(1.16029 -0.10722 -1.69693e-21)
(1.16181 -0.113747 4.54916e-22)
(1.16372 -0.120517 1.50158e-21)
(1.16606 -0.127459 9.3381e-21)
(1.16892 -0.134617 -9.86659e-21)
(1.17234 -0.141766 -1.34717e-20)
(1.17642 -0.149159 0)
(1.18119 -0.1561 -1.14932e-21)
(1.18669 -0.163568 1.21443e-21)
(1.19306 -0.169547 -1.20171e-20)
(1.19997 -0.177064 1.32482e-20)
(1.20817 -0.180856 1.91234e-20)
(1.21599 -0.188819 2.10106e-20)
(1.22642 -0.18858 -1.58491e-21)
(1.2337 -0.198183 1.65048e-21)
(1.24755 -0.191608 1.54954e-20)
(1.25059 -0.204799 1.16415e-21)
(1.27277 -0.189925 3.79678e-20)
(1.2685 -0.208396 2.28348e-20)
(1.34498 -0.208575 1.45311e-21)
(0.920501 -0.169574 1.55366e-20)
(1.15167 -2.49463e-05 0)
(1.15178 -6.91316e-05 2.14359e-20)
(1.15185 -0.000120943 4.90823e-20)
(1.15192 -0.000173781 -3.04658e-21)
(1.15197 -0.000227729 0)
(1.15201 -0.00028388 -2.66155e-20)
(1.15205 -0.000342174 0)
(1.15209 -0.000402744 1.41771e-20)
(1.15211 -0.000465808 -1.48526e-20)
(1.15214 -0.000531577 2.00682e-21)
(1.15216 -0.000600276 6.02949e-21)
(1.15219 -0.000672175 0)
(1.1522 -0.000747565 0)
(1.15222 -0.000826754 9.40988e-21)
(1.15224 -0.000910073 1.11626e-20)
(1.15225 -0.000997891 -6.54892e-21)
(1.15226 -0.00109058 0)
(1.15228 -0.00118853 1.50926e-21)
(1.15229 -0.00129219 -3.19156e-21)
(1.1523 -0.00140201 1.68725e-21)
(1.15231 -0.00151847 -7.58162e-21)
(1.15232 -0.00164209 3.4761e-21)
(1.15233 -0.00177345 9.86601e-22)
(1.15234 -0.00191313 -1.73279e-21)
(1.15235 -0.0020618 7.74751e-22)
(1.15236 -0.00222017 -4.19374e-21)
(1.15237 -0.00238902 5.36179e-21)
(1.15238 -0.00256923 0)
(1.15239 -0.00276175 0)
(1.15241 -0.00296763 -2.41322e-21)
(1.15242 -0.00318806 -8.14397e-22)
(1.15244 -0.00342434 -5.51025e-21)
(1.15246 -0.00367793 -7.41218e-22)
(1.15248 -0.00395045 7.39816e-22)
(1.15251 -0.00424371 7.33478e-22)
(1.15254 -0.00455971 3.23305e-22)
(1.15258 -0.00490066 -3.42762e-22)
(1.15262 -0.00526901 -5.80175e-22)
(1.15267 -0.00566744 -8.24343e-23)
(1.15272 -0.0060989 1.7781e-22)
(1.15278 -0.00656665 2.87442e-23)
(1.15284 -0.00707416 -3.04762e-23)
(1.15291 -0.00762521 -1.06407e-21)
(1.15299 -0.00822396 -1.71809e-21)
(1.15307 -0.00887478 2.4541e-22)
(1.15316 -0.00958239 1.33968e-21)
(1.15326 -0.0103518 -4.50016e-22)
(1.15336 -0.0111883 -1.04902e-22)
(1.15346 -0.0120976 -2.72163e-21)
(1.15357 -0.0130855 0)
(1.15368 -0.0141579 1.72306e-21)
(1.15379 -0.0153214 -1.05661e-21)
(1.1539 -0.0165824 -2.49767e-21)
(1.154 -0.0179475 4.32302e-21)
(1.1541 -0.0194238 0)
(1.15419 -0.0210177 0)
(1.15427 -0.0227368 7.66818e-22)
(1.15434 -0.0245871 -4.77452e-21)
(1.15439 -0.0265766 0)
(1.15442 -0.0287119 -5.16031e-21)
(1.15444 -0.0309999 4.79584e-21)
(1.15443 -0.0334487 1.23784e-21)
(1.15441 -0.0360642 -7.40139e-21)
(1.15437 -0.0388551 -5.82383e-21)
(1.1543 -0.0418274 0)
(1.15423 -0.0449911 0)
(1.15414 -0.048352 -3.36608e-21)
(1.15405 -0.0519202 5.07055e-21)
(1.15396 -0.0557027 -4.06819e-23)
(1.15388 -0.0597105 8.28441e-22)
(1.15383 -0.0639508 9.95302e-22)
(1.15382 -0.0684346 1.09616e-21)
(1.15388 -0.073171 3.52056e-21)
(1.15401 -0.0781674 1.1608e-20)
(1.15426 -0.083436 5.6803e-21)
(1.15464 -0.0889781 -6.78955e-21)
(1.15521 -0.0948051 6.421e-22)
(1.15599 -0.100915 -1.46033e-21)
(1.15705 -0.107307 -8.01998e-21)
(1.15843 -0.11397 1.17504e-20)
(1.1602 -0.120899 -1.24127e-21)
(1.16242 -0.128037 -6.00397e-21)
(1.16516 -0.135416 7.53605e-21)
(1.1685 -0.142833 0)
(1.17252 -0.150506 0)
(1.17728 -0.157798 0)
(1.18282 -0.165575 1.83486e-20)
(1.18928 -0.171979 1.36432e-20)
(1.19637 -0.179808 -1.7428e-20)
(1.20477 -0.184014 -1.5292e-20)
(1.21292 -0.192286 1.9916e-20)
(1.22372 -0.192297 2.30747e-20)
(1.23135 -0.20224 2.74741e-20)
(1.2459 -0.19555 -3.20417e-20)
(1.24891 -0.209106 1.07535e-21)
(1.27257 -0.19386 -3.91535e-20)
(1.26391 -0.211815 -4.43224e-20)
(1.34496 -0.209599 -2.86168e-21)
(0.934744 -0.17389 4.2929e-21)
(1.15166 -2.48131e-05 -1.12719e-20)
(1.15176 -6.92104e-05 -8.60651e-23)
(1.15184 -0.000120493 -1.90009e-21)
(1.1519 -0.000173012 -2.59976e-20)
(1.15195 -0.000226569 -3.06264e-20)
(1.15199 -0.000282242 -7.51229e-22)
(1.15203 -0.000340043 0)
(1.15206 -0.000400097 0)
(1.15209 -0.000462631 0)
(1.15211 -0.000527862 2.13657e-21)
(1.15213 -0.000596019 -2.26508e-21)
(1.15215 -0.000667369 -2.37813e-21)
(1.15217 -0.00074219 2.52103e-21)
(1.15218 -0.000820807 1.10548e-20)
(1.1522 -0.000903546 1.31198e-20)
(1.15221 -0.000990766 1.09397e-20)
(1.15222 -0.00108284 0)
(1.15223 -0.00118019 1.67211e-21)
(1.15224 -0.00128322 -1.77254e-21)
(1.15224 -0.00139241 7.95148e-21)
(1.15225 -0.00150825 -9.45364e-22)
(1.15226 -0.00163126 -9.04684e-21)