/*--------------------------------*- C++ -*----------------------------------*\
  =========                 |
  \\      /  F ield         | OpenFOAM: The Open Source CFD Toolbox
   \\    /   O peration     | Website:  https://openfoam.org
    \\  /    A nd           | Version:  9
     \\/     M anipulation  |
\*---------------------------------------------------------------------------*/
FoamFile
{
    format      ascii;
    class       volScalarField;
    location    "2250";
    object      gammaInt;
}
// * * * * * * * * * * * * * * * * * * * * * * * * * * * * * * * * * * * * * //

dimensions      [0 0 0 0 0 0 0];

internalField   nonuniform List<scalar> 
13446
(
0.999772
0.999787
0.99942
0.999801
0.999455
0.999175
0.998943
0.998738
0.999813
0.99949
0.99923
0.999001
0.998792
0.998605
0.999823
0.99953
0.999281
0.999052
0.99884
0.998655
0.998497
0.999832
0.999553
0.9993
0.999077
0.998876
0.998699
0.998543
0.998405
0.998283
0.998175
0.998078
0.997989
0.997907
0.997832
0.997762
0.997697
0.997637
0.99758
0.997527
0.997475
0.997426
0.997377
0.99733
0.997284
0.997239
0.997194
0.997149
0.997106
0.997063
0.997021
0.99698
0.999845
0.999553
0.999306
0.999097
0.998912
0.99874
0.998587
0.998451
0.998331
0.998223
0.998124
0.998034
0.997951
0.997875
0.997804
0.997738
0.997676
0.997618
0.997563
0.997511
0.99746
0.99741
0.997362
0.997314
0.997268
0.997222
0.997177
0.997133
0.997089
0.997046
0.997005
0.996964
0.996925
0.996564
0.996487
0.996376
0.996243
0.996098
0.995946
0.995796
0.995638
0.995475
0.995313
0.995161
0.995036
0.99489
0.994814
0.994698
0.994748
0.994529
0.994721
0.993752
0.9923
0.98533
0.976854
0.93313
0.865352
0.440633
0.0575392
0.999853
0.999581
0.999347
0.999138
0.998949
0.99878
0.99863
0.998498
0.998378
0.998269
0.99817
0.998079
0.997995
0.997917
0.997844
0.997777
0.997715
0.997656
0.997599
0.997545
0.997493
0.997442
0.997393
0.997344
0.997297
0.99725
0.997204
0.997159
0.997115
0.997072
0.99703
0.996989
0.996949
0.99691
0.996704
0.996629
0.996531
0.996414
0.996288
0.996152
0.996011
0.995865
0.995708
0.995553
0.995401
0.995252
0.995124
0.994988
0.994912
0.994805
0.994841
0.994676
0.994837
0.994022
0.992775
0.986484
0.979419
0.939016
0.877647
0.457852
0.0602852
0.999861
0.999601
0.999371
0.999167
0.998984
0.998821
0.998675
0.998543
0.998423
0.998314
0.998214
0.998122
0.998036
0.997957
0.997884
0.997816
0.997752
0.997692
0.997634
0.997579
0.997525
0.997473
0.997423
0.997374
0.997325
0.997278
0.997232
0.997186
0.997141
0.997097
0.997054
0.997013
0.996972
0.996933
0.996894
0.996857
0.996811
0.99674
0.996656
0.996561
0.996458
0.996341
0.996216
0.996082
0.995939
0.995789
0.995637
0.995494
0.995351
0.995229
0.9951
0.995017
0.994928
0.994949
0.994832
0.99497
0.994284
0.993258
0.987585
0.981871
0.944829
0.890008
0.475309
0.0632
0.999868
0.99962
0.999397
0.999198
0.999021
0.998862
0.998718
0.998586
0.998466
0.998357
0.998256
0.998163
0.998077
0.997997
0.997923
0.997854
0.997789
0.997727
0.997668
0.997611
0.997557
0.997504
0.997452
0.997402
0.997354
0.997306
0.997259
0.997212
0.997167
0.997123
0.997079
0.997037
0.996995
0.996955
0.996916
0.996877
0.996839
0.996956
0.996942
0.996938
0.996934
0.996921
0.996896
0.996859
0.996813
0.996751
0.996679
0.996593
0.996498
0.996389
0.996272
0.996149
0.996015
0.995875
0.995728
0.99559
0.995454
0.995332
0.995221
0.995137
0.995046
0.995074
0.994986
0.995115
0.994537
0.993738
0.988632
0.984288
0.950429
0.901898
0.494126
0.066586
0.999874
0.999637
0.999423
0.999231
0.999058
0.9989
0.998757
0.998626
0.998507
0.998397
0.998296
0.998202
0.998116
0.998035
0.99796
0.99789
0.997824
0.997761
0.997701
0.997643
0.997588
0.997534
0.997482
0.997431
0.997382
0.997333
0.997286
0.997239
0.997193
0.997148
0.997104
0.997061
0.997019
0.996977
0.996937
0.996897
0.996859
0.996821
0.996784
0.996865
0.996872
0.996886
0.996898
0.996901
0.996894
0.996876
0.996848
0.996809
0.996758
0.996696
0.996619
0.996532
0.996437
0.99633
0.996212
0.996086
0.995953
0.995824
0.995693
0.995565
0.995446
0.995334
0.995249
0.995176
0.995191
0.995161
0.995274
0.99478
0.994185
0.989636
0.986566
0.955737
0.914222
0.513237
0.0704664
0.99988
0.999652
0.999446
0.99926
0.99909
0.998935
0.998794
0.998664
0.998546
0.998436
0.998335
0.998241
0.998153
0.998072
0.997996
0.997925
0.997858
0.997795
0.997734
0.997675
0.997619
0.997564
0.997511
0.99746
0.99741
0.997361
0.997313
0.997266
0.997219
0.997174
0.997129
0.997085
0.997042
0.996999
0.996958
0.996917
0.996877
0.996838
0.996801
0.996763
0.996727
0.996614
0.996645
0.996664
0.996685
0.996713
0.996747
0.996781
0.996813
0.996839
0.996858
0.996867
0.996864
0.996855
0.996834
0.996802
0.996761
0.996709
0.996643
0.996562
0.996473
0.996376
0.996271
0.996158
0.996037
0.995913
0.995789
0.995675
0.995566
0.995464
0.995367
0.995314
0.995332
0.995332
0.995427
0.995015
0.994655
0.99058
0.9887
0.960814
0.925589
0.533246
0.074932
0.999885
0.999666
0.999467
0.999285
0.99912
0.998968
0.998829
0.998701
0.998583
0.998473
0.998372
0.998277
0.99819
0.998108
0.998031
0.99796
0.997892
0.997827
0.997766
0.997706
0.997649
0.997594
0.997541
0.997489
0.997438
0.997389
0.99734
0.997292
0.997245
0.997199
0.997153
0.997109
0.997065
0.997021
0.996978
0.996936
0.996895
0.996855
0.996816
0.996777
0.996741
0.996705
0.99667
0.996638
0.996607
0.996581
0.996597
0.996611
0.996634
0.996666
0.996701
0.996735
0.996766
0.996792
0.996811
0.996822
0.996826
0.996823
0.996812
0.996791
0.996756
0.996713
0.996657
0.996587
0.996512
0.996423
0.996325
0.99622
0.996117
0.996005
0.99589
0.995781
0.995678
0.99558
0.995502
0.995459
0.995482
0.995504
0.995575
0.995247
0.995114
0.991431
0.990773
0.96549
0.936681
0.554071
0.0797982
0.99989
0.999679
0.999487
0.99931
0.999148
0.998999
0.998862
0.998735
0.998618
0.998509
0.998407
0.998313
0.998225
0.998142
0.998066
0.997994
0.997925
0.99786
0.997798
0.997738
0.99768
0.997624
0.99757
0.997517
0.997466
0.997416
0.997367
0.997319
0.997271
0.997224
0.997178
0.997132
0.997087
0.997042
0.996998
0.996955
0.996913
0.996871
0.99683
0.996791
0.996752
0.996715
0.99668
0.996646
0.996615
0.996584
0.996554
0.99653
0.996535
0.996552
0.99658
0.996614
0.996648
0.996681
0.996712
0.996738
0.996759
0.996775
0.996786
0.996789
0.996782
0.996765
0.996739
0.996701
0.996655
0.996605
0.99654
0.996461
0.996376
0.996285
0.996191
0.996086
0.995986
0.995891
0.995796
0.995697
0.995629
0.995607
0.995622
0.995672
0.995754
0.995495
0.995552
0.992229
0.992647
0.969459
0.947512
0.574425
0.0849722
0.999894
0.999692
0.999505
0.999333
0.999175
0.999029
0.998894
0.998768
0.998652
0.998543
0.998442
0.998347
0.998258
0.998176
0.998099
0.998027
0.997958
0.997892
0.997829
0.997769
0.99771
0.997654
0.997599
0.997546
0.997494
0.997443
0.997393
0.997344
0.997296
0.997249
0.997201
0.997155
0.997109
0.997063
0.997018
0.996974
0.99693
0.996887
0.996845
0.996804
0.996764
0.996725
0.996688
0.996652
0.996618
0.996587
0.996558
0.996529
0.996504
0.996482
0.996464
0.99645
0.996438
0.996432
0.99643
0.996434
0.996443
0.996455
0.996475
0.996502
0.996531
0.996561
0.996592
0.996623
0.996652
0.996678
0.9967
0.996719
0.996733
0.996739
0.996739
0.99673
0.996712
0.996685
0.996646
0.996597
0.996539
0.99648
0.996416
0.996338
0.996258
0.996165
0.996072
0.995994
0.995907
0.99583
0.995771
0.995764
0.99579
0.995836
0.995922
0.995745
0.995932
0.992928
0.994212
0.972812
0.956368
0.595584
0.0908996
0.999899
0.999703
0.999522
0.999355
0.9992
0.999057
0.998923
0.9988
0.998684
0.998576
0.998474
0.99838
0.998291
0.998209
0.998132
0.998059
0.99799
0.997924
0.99786
0.997799
0.99774
0.997682
0.997627
0.997573
0.997521
0.997469
0.997419
0.99737
0.997321
0.997272
0.997224
0.997177
0.99713
0.997083
0.997037
0.996991
0.996946
0.996902
0.996859
0.996816
0.996775
0.996735
0.996696
0.996658
0.996623
0.996589
0.996557
0.996528
0.996501
0.996477
0.996456
0.996438
0.996423
0.996414
0.996408
0.996407
0.996412
0.996422
0.996437
0.996456
0.996479
0.996504
0.996532
0.99656
0.996587
0.996614
0.996638
0.996659
0.996676
0.996689
0.996694
0.996689
0.996677
0.996654
0.996626
0.996588
0.996542
0.996487
0.996427
0.996368
0.996308
0.996234
0.996166
0.996092
0.996007
0.995943
0.995914
0.995912
0.995929
0.995965
0.996057
0.995986
0.996259
0.993525
0.995511
0.975036
0.964529
0.615421
0.097136
0.999902
0.999714
0.999538
0.999375
0.999224
0.999083
0.998952
0.998829
0.998714
0.998606
0.998505
0.998411
0.998324
0.998242
0.998165
0.998092
0.998022
0.997955
0.99789
0.997828
0.997768
0.99771
0.997654
0.9976
0.997547
0.997495
0.997444
0.997394
0.997344
0.997295
0.997246
0.997198
0.99715
0.997102
0.997055
0.997008
0.996962
0.996917
0.996872
0.996828
0.996785
0.996744
0.996703
0.996664
0.996626
0.99659
0.996556
0.996524
0.996495
0.996468
0.996443
0.996422
0.996404
0.99639
0.99638
0.996374
0.996375
0.99638
0.99639
0.996404
0.996422
0.996443
0.996467
0.996493
0.996519
0.996544
0.996568
0.996591
0.996611
0.996624
0.99663
0.996632
0.996626
0.996614
0.996594
0.996565
0.99653
0.996488
0.996439
0.99639
0.996332
0.996274
0.996227
0.996171
0.996108
0.996062
0.996045
0.996045
0.996072
0.99613
0.996249
0.996216
0.996543
0.994067
0.996217
0.976281
0.969952
0.635014
0.104525
0.999906
0.999723
0.999553
0.999394
0.999246
0.999108
0.998979
0.998857
0.998743
0.998636
0.998536
0.998442
0.998355
0.998273
0.998196
0.998122
0.998052
0.997984
0.997918
0.997855
0.997795
0.997736
0.997679
0.997625
0.997571
0.997519
0.997467
0.997416
0.997366
0.997316
0.997267
0.997217
0.997169
0.99712
0.997072
0.997024
0.996977
0.996931
0.996885
0.99684
0.996795
0.996752
0.99671
0.996669
0.996629
0.996591
0.996555
0.99652
0.996488
0.996457
0.99643
0.996405
0.996383
0.996365
0.996351
0.996341
0.996336
0.996336
0.99634
0.996349
0.996362
0.996378
0.996398
0.996419
0.996442
0.996466
0.99649
0.996512
0.996532
0.996549
0.996561
0.99657
0.996571
0.996567
0.996554
0.996534
0.996505
0.996477
0.996441
0.996402
0.996363
0.996322
0.996278
0.99624
0.996199
0.996193
0.996195
0.996202
0.996213
0.996279
0.99639
0.996423
0.996812
0.994535
0.996693
0.976009
0.973072
0.652814
0.113104
0.999909
0.999733
0.999567
0.999412
0.999267
0.999131
0.999004
0.998884
0.998771
0.998665
0.998565
0.998473
0.998386
0.998304
0.998226
0.998151
0.99808
0.998011
0.997945
0.997881
0.99782
0.99776
0.997703
0.997648
0.997594
0.997541
0.997489
0.997438
0.997387
0.997336
0.997286
0.997236
0.997186
0.997137
0.997088
0.997039
0.996991
0.996944
0.996897
0.99685
0.996805
0.99676
0.996716
0.996673
0.996631
0.996591
0.996552
0.996515
0.996479
0.996446
0.996415
0.996387
0.996361
0.996339
0.99632
0.996305
0.996295
0.996289
0.996287
0.99629
0.996298
0.996309
0.996323
0.996341
0.996361
0.996383
0.996405
0.996428
0.996449
0.996467
0.996482
0.996494
0.9965
0.996499
0.996494
0.996488
0.996476
0.996455
0.996428
0.9964
0.996365
0.996328
0.9963
0.99628
0.996269
0.996275
0.996277
0.996305
0.996338
0.996408
0.996539
0.996656
0.997026
0.994911
0.996643
0.974691
0.973277
0.668227
0.123905
0.999912
0.999742
0.999581
0.99943
0.999287
0.999154
0.999028
0.998909
0.998797
0.998692
0.998594
0.998502
0.998415
0.998332
0.998254
0.998178
0.998105
0.998036
0.997969
0.997904
0.997843
0.997783
0.997726
0.99767
0.997616
0.997562
0.99751
0.997458
0.997406
0.997355
0.997304
0.997253
0.997203
0.997153
0.997103
0.997054
0.997004
0.996956
0.996908
0.99686
0.996813
0.996767
0.996721
0.996676
0.996632
0.99659
0.996548
0.996508
0.99647
0.996433
0.996398
0.996366
0.996336
0.99631
0.996286
0.996266
0.99625
0.996238
0.996231
0.996228
0.996229
0.996234
0.996244
0.996257
0.996272
0.996289
0.996309
0.996329
0.996348
0.996367
0.996385
0.9964
0.996412
0.996423
0.996427
0.996424
0.996416
0.996408
0.996397
0.996378
0.996363
0.996348
0.996332
0.996323
0.996324
0.996342
0.996375
0.996404
0.996441
0.996515
0.996671
0.996848
0.997245
0.995282
0.996446
0.972903
0.969635
0.681998
0.138347
0.999915
0.999754
0.999597
0.999448
0.999308
0.999176
0.999051
0.998934
0.998823
0.998719
0.998621
0.998529
0.998442
0.998358
0.998279
0.998202
0.998129
0.998059
0.997991
0.997927
0.997865
0.997805
0.997748
0.997691
0.997637
0.997583
0.997529
0.997477
0.997424
0.997372
0.997321
0.997269
0.997218
0.997167
0.997117
0.997067
0.997017
0.996967
0.996917
0.996868
0.99682
0.996772
0.996724
0.996678
0.996632
0.996586
0.996542
0.996499
0.996458
0.996417
0.996379
0.996343
0.996309
0.996277
0.996248
0.996222
0.9962
0.996183
0.996169
0.996159
0.996154
0.996154
0.996157
0.996163
0.996173
0.996186
0.996201
0.996219
0.996238
0.996259
0.996279
0.996298
0.996315
0.996326
0.996333
0.996341
0.996345
0.996344
0.996342
0.996348
0.996349
0.996355
0.996348
0.996346
0.99635
0.996368
0.996403
0.996474
0.996548
0.996648
0.996803
0.997071
0.997382
0.995678
0.996242
0.971976
0.96568
0.697759
0.156729
0.999918
0.999781
0.999616
0.999465
0.999326
0.999195
0.999072
0.998956
0.998847
0.998744
0.998647
0.998554
0.998466
0.998382
0.998302
0.998225
0.998152
0.998081
0.998014
0.997949
0.997887
0.997827
0.997769
0.997712
0.997656
0.997602
0.997548
0.997494
0.997441
0.997389
0.997336
0.997284
0.997233
0.997181
0.99713
0.997078
0.997027
0.996977
0.996926
0.996876
0.996826
0.996776
0.996726
0.996677
0.996629
0.996581
0.996534
0.996488
0.996443
0.996399
0.996357
0.996316
0.996277
0.99624
0.996206
0.996175
0.996147
0.996123
0.996103
0.996086
0.996074
0.996066
0.996061
0.996061
0.996064
0.996073
0.996085
0.9961
0.996118
0.996137
0.996155
0.996172
0.996187
0.996204
0.996223
0.99624
0.996252
0.996268
0.99628
0.996296
0.996306
0.996308
0.996322
0.996351
0.996375
0.996403
0.996439
0.996492
0.99657
0.996681
0.996922
0.997231
0.997544
0.996237
0.996149
0.974302
0.962227
0.730256
0.177995
0.99992
0.999763
0.999614
0.999472
0.999339
0.999212
0.999092
0.998978
0.99887
0.998768
0.998671
0.998578
0.99849
0.998406
0.998325
0.998248
0.998175
0.998104
0.998037
0.997972
0.997909
0.997849
0.99779
0.997732
0.997676
0.99762
0.997565
0.997511
0.997457
0.997404
0.997351
0.997298
0.997246
0.997193
0.997141
0.997089
0.997037
0.996985
0.996933
0.996881
0.996829
0.996778
0.996726
0.996675
0.996624
0.996573
0.996523
0.996474
0.996425
0.996377
0.996331
0.996286
0.996242
0.9962
0.99616
0.996124
0.996089
0.996058
0.99603
0.996007
0.995986
0.99597
0.995958
0.995952
0.995949
0.995951
0.995957
0.995967
0.995981
0.995994
0.996011
0.996029
0.996048
0.996071
0.996092
0.996112
0.996138
0.996163
0.996189
0.996209
0.996229
0.996257
0.996284
0.996308
0.996341
0.996389
0.996458
0.996553
0.996681
0.996827
0.996979
0.997298
0.997628
0.996999
0.996542
0.980848
0.963307
0.79859
0.200164
0.999922
0.999769
0.999624
0.999485
0.999354
0.99923
0.999111
0.998999
0.998892
0.99879
0.998694
0.998601
0.998513
0.998429
0.998349
0.998272
0.998198
0.998128
0.99806
0.997994
0.997931
0.99787
0.99781
0.997751
0.997694
0.997637
0.997582
0.997527
0.997473
0.997419
0.997365
0.997311
0.997258
0.997205
0.997152
0.997099
0.997045
0.996992
0.996939
0.996885
0.996832
0.996778
0.996725
0.996671
0.996617
0.996564
0.99651
0.996458
0.996405
0.996353
0.996302
0.996253
0.996204
0.996157
0.996112
0.996068
0.996027
0.995989
0.995953
0.995921
0.995893
0.99587
0.99585
0.995834
0.995823
0.995818
0.995816
0.995818
0.995825
0.995836
0.995848
0.995867
0.995892
0.995915
0.995941
0.995969
0.995997
0.996026
0.996055
0.996086
0.996124
0.99616
0.996204
0.996267
0.996316
0.996364
0.996417
0.996474
0.996568
0.996724
0.996967
0.9973
0.997753
0.997611
0.997316
0.989431
0.968864
0.907289
0.22433
0.999924
0.999776
0.999634
0.999499
0.99937
0.999247
0.99913
0.999019
0.998913
0.998812
0.998716
0.998624
0.998536
0.998453
0.998372
0.998295
0.998222
0.998151
0.998082
0.998016
0.997952
0.997889
0.997829
0.997769
0.997711
0.997654
0.997598
0.997542
0.997487
0.997433
0.997378
0.997324
0.99727
0.997216
0.997162
0.997108
0.997054
0.996999
0.996945
0.996889
0.996834
0.996779
0.996723
0.996667
0.996611
0.996554
0.996498
0.996442
0.996386
0.99633
0.996275
0.996221
0.996167
0.996114
0.996063
0.996014
0.995966
0.995921
0.995878
0.995838
0.995802
0.995769
0.995739
0.995715
0.995697
0.995682
0.995672
0.995668
0.995668
0.995674
0.995686
0.995701
0.99572
0.995744
0.995769
0.995797
0.995831
0.99587
0.995918
0.995969
0.996016
0.996076
0.996132
0.996174
0.996228
0.996301
0.99639
0.996484
0.996603
0.996812
0.997075
0.997411
0.997808
0.998073
0.998225
0.996057
0.97732
1.00531
0.262546
0.999926
0.999787
0.999649
0.999516
0.999388
0.999266
0.99915
0.999039
0.998934
0.998834
0.998738
0.998647
0.998559
0.998476
0.998395
0.998318
0.998244
0.998172
0.998103
0.998036
0.997971
0.997908
0.997847
0.997787
0.997729
0.997671
0.997614
0.997558
0.997503
0.997448
0.997393
0.997339
0.997284
0.99723
0.997175
0.99712
0.997065
0.99701
0.996954
0.996898
0.996841
0.996784
0.996726
0.996669
0.99661
0.996552
0.996493
0.996434
0.996375
0.996316
0.996257
0.996199
0.996141
0.996084
0.996028
0.995973
0.99592
0.995869
0.995819
0.995772
0.995728
0.995688
0.995652
0.995618
0.995589
0.995564
0.995545
0.995532
0.995523
0.995518
0.995519
0.995525
0.995535
0.995553
0.995583
0.99562
0.995662
0.995712
0.995757
0.995808
0.995872
0.995927
0.99599
0.996061
0.996129
0.996201
0.996282
0.996402
0.996568
0.996711
0.996865
0.997187
0.997668
0.9984
0.998011
0.999068
0.980979
1.04616
0.316471
0.999928
0.99985
0.999691
0.999546
0.999412
0.999287
0.99917
0.999059
0.998954
0.998855
0.99876
0.998669
0.998582
0.998498
0.998418
0.99834
0.998266
0.998194
0.998124
0.998057
0.997992
0.997929
0.997867
0.997807
0.997749
0.997691
0.997635
0.997579
0.997524
0.997469
0.997415
0.99736
0.997306
0.997252
0.997197
0.997143
0.997087
0.997032
0.996976
0.99692
0.996863
0.996806
0.996748
0.99669
0.996631
0.996572
0.996512
0.996452
0.996392
0.996332
0.996271
0.996211
0.996151
0.996092
0.996033
0.995975
0.995918
0.995863
0.995808
0.995756
0.995706
0.995658
0.995613
0.995571
0.995533
0.995499
0.995467
0.995441
0.995422
0.995409
0.995403
0.995406
0.995419
0.995441
0.995469
0.995502
0.995549
0.995596
0.995653
0.995715
0.995776
0.995847
0.995903
0.995968
0.996046
0.996124
0.996203
0.996313
0.996455
0.99663
0.996873
0.997162
0.997669
0.998387
0.997924
0.999176
0.982406
1.03592
0.4019
0.99993
0.999791
0.999658
0.99953
0.999407
0.99929
0.999178
0.999072
0.998971
0.998874
0.998781
0.998691
0.998605
0.998521
0.998441
0.998364
0.99829
0.998218
0.998149
0.998082
0.998017
0.997955
0.997894
0.997835
0.997777
0.997721
0.997665
0.997611
0.997557
0.997503
0.997451
0.997398
0.997345
0.997293
0.99724
0.997188
0.997135
0.997082
0.997028
0.996975
0.99692
0.996866
0.996811
0.996755
0.996699
0.996643
0.996586
0.996529
0.996472
0.996414
0.996357
0.996299
0.996242
0.996185
0.996128
0.996072
0.996016
0.995961
0.995907
0.995854
0.995802
0.995752
0.995704
0.995658
0.995614
0.995574
0.995539
0.995509
0.995486
0.995471
0.995463
0.995464
0.995475
0.995494
0.995523
0.99556
0.995598
0.995644
0.995697
0.995749
0.995803
0.995849
0.995913
0.995976
0.996037
0.996118
0.996244
0.996358
0.996449
0.996601
0.996787
0.997056
0.997511
0.998314
0.998355
0.999014
0.9884
1.01979
0.535351
0.999932
0.999796
0.999665
0.999538
0.999417
0.999302
0.999194
0.99909
0.99899
0.998894
0.998802
0.998714
0.998628
0.998546
0.998467
0.998391
0.998318
0.998248
0.99818
0.998115
0.998052
0.997991
0.997932
0.997875
0.997819
0.997765
0.997712
0.99766
0.997609
0.997559
0.997509
0.99746
0.997412
0.997364
0.997316
0.997268
0.997221
0.997173
0.997126
0.997079
0.997031
0.996984
0.996937
0.996889
0.996842
0.996795
0.996747
0.9967
0.996652
0.996605
0.996558
0.996511
0.996465
0.996419
0.996373
0.996328
0.996283
0.99624
0.996197
0.996155
0.996114
0.996075
0.996036
0.996
0.995965
0.995934
0.995907
0.995884
0.995867
0.995856
0.995851
0.995854
0.995863
0.995878
0.995899
0.995925
0.995955
0.995988
0.99602
0.996051
0.996079
0.996111
0.996144
0.996183
0.996235
0.996294
0.996351
0.996409
0.996512
0.996605
0.996765
0.997144
0.997557
0.998252
0.998316
0.999137
0.991797
1.0134
0.673363
0.999933
0.999802
0.99967
0.999538
0.999427
0.999327
0.999225
0.999122
0.999022
0.998924
0.99883
0.998741
0.998655
0.998574
0.998497
0.998424
0.998354
0.998286
0.998222
0.998159
0.998099
0.99804
0.997984
0.997928
0.997875
0.997822
0.997771
0.997721
0.997673
0.997625
0.997578
0.997533
0.997488
0.997444
0.997401
0.997358
0.997317
0.997276
0.997236
0.997196
0.997157
0.997119
0.997081
0.997044
0.997008
0.996973
0.996938
0.996905
0.996872
0.99684
0.996809
0.99678
0.996752
0.996725
0.996699
0.996676
0.996654
0.996634
0.996617
0.996602
0.996589
0.996579
0.996571
0.996565
0.996562
0.99656
0.99656
0.99656
0.996562
0.996567
0.996572
0.996579
0.996585
0.996592
0.996601
0.996605
0.996611
0.996616
0.996613
0.996608
0.996604
0.996608
0.996601
0.996614
0.996627
0.996651
0.996662
0.996693
0.996746
0.996887
0.997079
0.997299
0.997594
0.998027
0.998501
0.999047
0.994448
1.01057
0.542454
0.999934
0.999804
0.999676
0.999552
0.999436
0.999328
0.999224
0.999122
0.999022
0.998925
0.998833
0.998745
0.998663
0.998585
0.998511
0.998442
0.998375
0.998311
0.99825
0.99819
0.998132
0.998075
0.998019
0.997965
0.997912
0.99786
0.99781
0.99776
0.997712
0.997665
0.997619
0.997574
0.99753
0.997488
0.997446
0.997406
0.997367
0.997329
0.997292
0.997256
0.997221
0.997187
0.997154
0.997122
0.997091
0.997062
0.997034
0.997007
0.996981
0.996957
0.996935
0.996914
0.996894
0.996871
0.996847
0.996821
0.996795
0.996769
0.996743
0.996717
0.996693
0.99667
0.996647
0.996625
0.996606
0.99659
0.996575
0.996563
0.996555
0.996553
0.996553
0.996559
0.996567
0.996582
0.996604
0.996628
0.996662
0.996702
0.996748
0.996807
0.996872
0.996928
0.997003
0.997071
0.99712
0.997161
0.997192
0.997239
0.99729
0.997312
0.997359
0.997484
0.997654
0.998223
0.998595
0.999068
0.995455
1.00147
0.438411
0.999936
0.999807
0.999683
0.999561
0.999443
0.99933
0.999224
0.999121
0.999021
0.998924
0.998832
0.998745
0.998664
0.998587
0.998515
0.998447
0.998383
0.998321
0.998262
0.998203
0.998147
0.998091
0.998036
0.997982
0.997929
0.997877
0.997826
0.997776
0.997727
0.997679
0.997633
0.997587
0.997543
0.9975
0.997458
0.997417
0.997378
0.997339
0.997302
0.997266
0.997231
0.997197
0.997165
0.997133
0.997103
0.997074
0.997047
0.997021
0.996996
0.996972
0.996951
0.996931
0.996911
0.996887
0.996861
0.996834
0.996806
0.996777
0.996747
0.996716
0.996685
0.996654
0.996625
0.996596
0.996567
0.996541
0.996516
0.996494
0.996474
0.996456
0.996443
0.996433
0.99643
0.996434
0.99644
0.996456
0.996475
0.996501
0.996533
0.996567
0.996612
0.996662
0.99673
0.996821
0.996917
0.997053
0.997222
0.997393
0.997561
0.997737
0.997858
0.998047
0.998371
0.998597
0.998893
0.998553
0.997566
0.996808
0.37221
0.999937
0.999811
0.999688
0.999568
0.999451
0.999339
0.999231
0.999127
0.999027
0.99893
0.998837
0.998749
0.998666
0.998588
0.998515
0.998447
0.998382
0.998321
0.998262
0.998205
0.998149
0.998094
0.99804
0.997986
0.997933
0.997881
0.997829
0.997779
0.997729
0.99768
0.997632
0.997586
0.99754
0.997495
0.997452
0.99741
0.997369
0.997329
0.99729
0.997253
0.997216
0.997181
0.997147
0.997114
0.997082
0.997051
0.997022
0.996994
0.996967
0.996941
0.996917
0.996895
0.996873
0.996853
0.996832
0.996808
0.996782
0.996754
0.996725
0.996695
0.996665
0.996635
0.996604
0.996574
0.996545
0.996517
0.996492
0.99647
0.99645
0.996432
0.996416
0.996402
0.996392
0.996384
0.996384
0.996388
0.9964
0.996422
0.996449
0.996484
0.996522
0.996568
0.996628
0.996693
0.996779
0.996864
0.996983
0.997156
0.997324
0.997519
0.997762
0.998062
0.998371
0.998747
0.998853
0.999365
0.996432
0.993303
0.327888
0.999938
0.999814
0.999692
0.999574
0.999458
0.999347
0.99924
0.999136
0.999036
0.998939
0.998845
0.998755
0.99867
0.99859
0.998515
0.998445
0.998379
0.998317
0.998257
0.9982
0.998144
0.998089
0.998035
0.997982
0.997929
0.997877
0.997825
0.997774
0.997723
0.997674
0.997625
0.997577
0.99753
0.997484
0.997439
0.997395
0.997353
0.997311
0.99727
0.997231
0.997192
0.997155
0.997119
0.997083
0.997049
0.997016
0.996984
0.996953
0.996923
0.996894
0.996867
0.996841
0.996817
0.996794
0.996772
0.99675
0.996728
0.996707
0.996684
0.99666
0.996634
0.996607
0.99658
0.996552
0.996525
0.996499
0.996474
0.99645
0.99643
0.996413
0.996402
0.996391
0.996383
0.996379
0.99638
0.996385
0.996394
0.996401
0.996427
0.996464
0.996517
0.996574
0.996645
0.996718
0.996802
0.9969
0.997016
0.997126
0.997292
0.997508
0.997619
0.997779
0.998015
0.998
0.997983
0.998765
0.996032
0.992938
0.296435
0.999939
0.999817
0.999697
0.999579
0.999465
0.999354
0.999247
0.999144
0.999045
0.998948
0.998854
0.998763
0.998676
0.998594
0.998516
0.998444
0.998376
0.998312
0.998251
0.998193
0.998137
0.998082
0.998028
0.997974
0.997921
0.997869
0.997817
0.997765
0.997714
0.997663
0.997614
0.997565
0.997517
0.997469
0.997423
0.997378
0.997334
0.99729
0.997248
0.997207
0.997166
0.997127
0.997088
0.99705
0.997014
0.996978
0.996943
0.996909
0.996876
0.996845
0.996814
0.996785
0.996757
0.99673
0.996705
0.996681
0.996658
0.996636
0.996614
0.996594
0.996574
0.996553
0.996533
0.996513
0.996494
0.996474
0.996454
0.996434
0.996416
0.9964
0.996387
0.996378
0.996374
0.996375
0.996379
0.996387
0.996404
0.99643
0.996455
0.996478
0.996513
0.99657
0.996645
0.996728
0.996843
0.996962
0.997088
0.997223
0.997327
0.997493
0.997773
0.997906
0.998098
0.998238
0.998043
0.998435
0.995899
0.992714
0.272256
0.999941
0.99982
0.999698
0.999581
0.999468
0.999358
0.999253
0.99915
0.999051
0.998955
0.998862
0.998771
0.998683
0.998599
0.99852
0.998445
0.998375
0.998309
0.998246
0.998187
0.998129
0.998074
0.998019
0.997965
0.997912
0.997859
0.997807
0.997754
0.997703
0.997652
0.997601
0.997551
0.997502
0.997454
0.997406
0.997359
0.997314
0.997269
0.997225
0.997182
0.99714
0.997098
0.997058
0.997018
0.996979
0.996941
0.996903
0.996867
0.996831
0.996797
0.996763
0.99673
0.996699
0.996668
0.996639
0.996612
0.996586
0.996561
0.996537
0.996514
0.996492
0.996473
0.996454
0.996438
0.996423
0.996409
0.996396
0.996383
0.996372
0.996364
0.996355
0.996352
0.996353
0.996359
0.996368
0.996383
0.996405
0.996432
0.996466
0.996503
0.99655
0.996612
0.996677
0.99677
0.996856
0.996975
0.997129
0.997276
0.997444
0.997542
0.997634
0.997881
0.998137
0.998226
0.998132
0.998235
0.996095
0.991103
0.252433
0.999941
0.99982
0.999707
0.999594
0.999479
0.999367
0.99926
0.999157
0.999057
0.998962
0.998869
0.998778
0.99869
0.998607
0.998526
0.998449
0.998377
0.998308
0.998244
0.998182
0.998123
0.998066
0.998011
0.997956
0.997902
0.997849
0.997795
0.997743
0.99769
0.997639
0.997587
0.997536
0.997486
0.997437
0.997388
0.997341
0.997294
0.997247
0.997202
0.997157
0.997114
0.99707
0.997028
0.996986
0.996945
0.996905
0.996865
0.996826
0.996788
0.996751
0.996714
0.996679
0.996644
0.99661
0.996577
0.996546
0.996517
0.996488
0.996462
0.996436
0.996411
0.996388
0.996367
0.996349
0.996332
0.996318
0.996306
0.996298
0.996291
0.996288
0.996287
0.99629
0.996297
0.996308
0.996325
0.996347
0.996371
0.996405
0.996448
0.996498
0.996555
0.996617
0.99669
0.996783
0.99688
0.997004
0.997142
0.997321
0.997495
0.997684
0.997847
0.997945
0.998226
0.998527
0.998404
0.99814
0.997064
0.989246
0.236327
0.999941
0.999823
0.999714
0.999605
0.999492
0.99938
0.99927
0.999165
0.999065
0.998968
0.998875
0.998785
0.998699
0.998614
0.998532
0.998454
0.99838
0.99831
0.998243
0.998179
0.998119
0.99806
0.998003
0.997947
0.997892
0.997838
0.997784
0.997731
0.997678
0.997625
0.997573
0.997521
0.99747
0.99742
0.99737
0.997321
0.997273
0.997226
0.997179
0.997133
0.997088
0.997043
0.996999
0.996956
0.996913
0.996871
0.996829
0.996788
0.996747
0.996707
0.996668
0.99663
0.996592
0.996556
0.99652
0.996485
0.996452
0.99642
0.99639
0.996361
0.996334
0.996308
0.996284
0.996262
0.996244
0.996227
0.996213
0.996202
0.996194
0.99619
0.996191
0.996196
0.996206
0.996222
0.996244
0.996272
0.996306
0.996341
0.996385
0.996438
0.99649
0.99655
0.99663
0.996744
0.996865
0.99701
0.997137
0.997319
0.997483
0.997665
0.997905
0.998028
0.998287
0.998553
0.998209
0.997858
0.99721
0.985658
0.221927
0.999943
0.999825
0.999714
0.999602
0.999494
0.999386
0.999278
0.999173
0.999072
0.998975
0.998881
0.99879
0.998703
0.998618
0.998536
0.998458
0.998383
0.998312
0.998243
0.998178
0.998116
0.998055
0.997997
0.99794
0.997884
0.997828
0.997773
0.997719
0.997665
0.997611
0.997558
0.997506
0.997454
0.997402
0.997352
0.997302
0.997252
0.997204
0.997156
0.997109
0.997062
0.997016
0.996971
0.996926
0.996881
0.996837
0.996794
0.996751
0.996708
0.996666
0.996624
0.996584
0.996544
0.996504
0.996466
0.996428
0.996392
0.996357
0.996323
0.996292
0.996261
0.996232
0.996205
0.99618
0.996158
0.996139
0.996125
0.996113
0.996104
0.996098
0.996096
0.996099
0.996108
0.996121
0.996141
0.996173
0.996214
0.996256
0.996305
0.996363
0.996438
0.996514
0.996587
0.996683
0.99681
0.996969
0.997141
0.997328
0.997469
0.997678
0.997938
0.99816
0.998428
0.998548
0.998315
0.997805
0.997032
0.981258
0.209441
0.999944
0.999828
0.999709
0.99962
0.999514
0.999397
0.999286
0.99918
0.999078
0.998981
0.998886
0.998795
0.998708
0.998622
0.99854
0.998461
0.998385
0.998313
0.998244
0.998178
0.998114
0.998052
0.997992
0.997933
0.997876
0.997819
0.997763
0.997707
0.997652
0.997598
0.997544
0.99749
0.997437
0.997385
0.997333
0.997282
0.997232
0.997182
0.997133
0.997085
0.997037
0.99699
0.996943
0.996896
0.99685
0.996805
0.99676
0.996715
0.99667
0.996626
0.996582
0.996539
0.996496
0.996455
0.996414
0.996374
0.996335
0.996297
0.99626
0.996225
0.996193
0.996162
0.996132
0.996106
0.99608
0.996059
0.996039
0.996026
0.996016
0.996009
0.996009
0.99601
0.996017
0.996034
0.996056
0.996082
0.996119
0.996167
0.996217
0.996282
0.996357
0.99645
0.996549
0.996638
0.99676
0.996918
0.997072
0.997289
0.997481
0.997654
0.997939
0.998188
0.998447
0.998727
0.998344
0.99729
0.996428
0.976416
0.198398
0.999945
0.99983
0.999713
0.999616
0.999512
0.999401
0.999291
0.999185
0.999083
0.998985
0.998891
0.998799
0.998711
0.998626
0.998543
0.998464
0.998387
0.998314
0.998244
0.998177
0.998112
0.998049
0.997988
0.997928
0.997869
0.997811
0.997753
0.997696
0.99764
0.997584
0.997529
0.997474
0.99742
0.997367
0.997314
0.997262
0.997211
0.99716
0.99711
0.997061
0.997012
0.996963
0.996915
0.996867
0.99682
0.996773
0.996726
0.996679
0.996633
0.996587
0.996542
0.996496
0.996452
0.996408
0.996365
0.996322
0.996281
0.996241
0.996203
0.996165
0.996128
0.996094
0.996063
0.996035
0.996009
0.995986
0.995965
0.995948
0.995934
0.995927
0.995923
0.995926
0.995934
0.995945
0.995967
0.995997
0.996036
0.996091
0.996151
0.996211