/*--------------------------------*- C++ -*----------------------------------*\
  =========                 |
  \\      /  F ield         | OpenFOAM: The Open Source CFD Toolbox
   \\    /   O peration     | Website:  https://openfoam.org
    \\  /    A nd           | Version:  9
     \\/     M anipulation  |
\*---------------------------------------------------------------------------*/
FoamFile
{
    format      ascii;
    class       volScalarField;
    location    "2250";
    object      k;
}
// * * * * * * * * * * * * * * * * * * * * * * * * * * * * * * * * * * * * * //

dimensions      [0 2 -2 0 0 0 0];

internalField   nonuniform List<scalar> 
13446
(
3.27704e-05
3.32842e-05
3.70819e-07
3.37699e-05
6.61623e-07
1.46849e-08
2.41998e-09
9.0209e-10
3.42366e-05
1.10443e-06
9.42358e-08
6.1366e-09
1.24992e-09
2.5925e-10
3.46757e-05
1.60518e-06
5.15958e-08
9.62054e-09
1.31923e-09
1.85565e-11
8.18009e-10
3.50919e-05
2.1207e-06
1.44701e-07
1.55181e-08
1.7822e-10
1.78326e-11
1.0091e-09
9.13195e-09
1.11021e-07
3.64962e-07
6.97778e-07
9.80028e-07
1.15167e-06
1.23666e-06
1.28741e-06
1.34074e-06
1.40822e-06
1.48693e-06
1.5717e-06
1.66027e-06
1.75282e-06
1.85017e-06
1.95291e-06
2.06138e-06
2.17585e-06
2.29663e-06
2.42408e-06
2.55856e-06
2.70047e-06
2.85022e-06
3.00804e-06
3.54835e-05
3.21035e-06
2.79697e-07
1.41208e-09
3.28089e-10
4.96389e-11
5.9985e-10
2.19039e-09
7.03649e-08
2.83203e-07
6.05728e-07
9.09193e-07
1.10803e-06
1.20938e-06
1.26383e-06
1.31372e-06
1.37644e-06
1.45177e-06
1.53445e-06
1.62127e-06
1.71183e-06
1.80688e-06
1.90712e-06
2.01295e-06
2.12466e-06
2.24253e-06
2.3669e-06
2.49811e-06
2.63658e-06
2.78267e-06
2.93689e-06
3.09915e-06
3.27035e-06
2.8047e-05
2.94274e-05
3.08786e-05
3.23946e-05
3.39716e-05
3.56108e-05
3.73121e-05
3.90785e-05
4.0915e-05
4.28222e-05
4.48058e-05
4.6872e-05
4.90278e-05
5.12882e-05
5.36729e-05
5.61991e-05
5.89212e-05
6.18842e-05
6.53135e-05
6.92396e-05
7.43955e-05
8.04556e-05
8.98615e-05
0.00010493
0.000144374
0.000253127
3.5859e-05
1.38453e-06
1.59899e-07
1.44493e-09
1.02623e-09
1.28278e-10
3.19332e-10
4.0629e-09
4.07156e-08
2.10014e-07
5.13502e-07
8.32303e-07
1.05713e-06
1.17672e-06
1.23782e-06
1.2863e-06
1.3447e-06
1.4162e-06
1.49631e-06
1.58118e-06
1.66973e-06
1.76248e-06
1.86019e-06
1.96334e-06
2.07221e-06
2.1871e-06
2.30831e-06
2.4362e-06
2.57113e-06
2.71352e-06
2.86372e-06
3.02226e-06
3.18964e-06
3.36543e-06
2.60472e-05
2.73444e-05
2.87078e-05
3.01326e-05
3.16157e-05
3.31576e-05
3.47611e-05
3.6427e-05
3.81587e-05
3.99593e-05
4.18299e-05
4.37762e-05
4.5804e-05
4.79221e-05
5.01452e-05
5.24896e-05
5.49763e-05
5.76595e-05
6.0574e-05
6.39414e-05
6.77782e-05
7.2881e-05
7.88484e-05
8.84222e-05
0.000103874
0.000144434
0.000255481
3.62113e-05
1.86349e-07
5.10545e-09
4.11829e-09
4.0182e-10
7.14412e-11
7.78449e-11
1.76912e-09
2.15527e-08
1.47804e-07
4.21399e-07
7.46088e-07
9.95239e-07
1.13622e-06
1.20822e-06
1.25834e-06
1.31354e-06
1.38097e-06
1.45794e-06
1.54051e-06
1.62698e-06
1.71747e-06
1.81267e-06
1.9131e-06
2.0191e-06
2.13097e-06
2.249e-06
2.37351e-06
2.50489e-06
2.6435e-06
2.78975e-06
2.94405e-06
3.10679e-06
3.27865e-06
3.45947e-06
3.65012e-06
2.41498e-05
2.53672e-05
2.66443e-05
2.79783e-05
2.93682e-05
3.08167e-05
3.23237e-05
3.38919e-05
3.55222e-05
3.72166e-05
3.89799e-05
4.08118e-05
4.27194e-05
4.47068e-05
4.67842e-05
4.89658e-05
5.12696e-05
5.37143e-05
5.63544e-05
5.92215e-05
6.25311e-05
6.62837e-05
7.13261e-05
7.71872e-05
8.69085e-05
0.000102725
0.00014433
0.000255344
3.65271e-05
1.90902e-06
6.31841e-08
1.04118e-08
1.36692e-09
6.55729e-11
6.82191e-11
5.03701e-10
9.34303e-09
9.71436e-08
3.29068e-07
6.45123e-07
9.1614e-07
1.08457e-06
1.17407e-06
1.22974e-06
1.28304e-06
1.34622e-06
1.41943e-06
1.49928e-06
1.58352e-06
1.67177e-06
1.76447e-06
1.86218e-06
1.96528e-06
2.07408e-06
2.18888e-06
2.30999e-06
2.43777e-06
2.57258e-06
2.71481e-06
2.86485e-06
3.02316e-06
3.19014e-06
3.36633e-06
3.55234e-06
3.74764e-06
1.65036e-05
1.73614e-05
1.82667e-05
1.92186e-05
2.02165e-05
2.12602e-05
2.23521e-05
2.34943e-05
2.46891e-05
2.59356e-05
2.72365e-05
2.85927e-05
3.00067e-05
3.14786e-05
3.301e-05
3.46022e-05
3.62595e-05
3.7983e-05
3.97762e-05
4.16419e-05
4.35898e-05
4.56256e-05
4.77627e-05
5.00204e-05
5.24202e-05
5.50149e-05
5.78357e-05
6.10893e-05
6.47572e-05
6.97453e-05
7.54816e-05
8.53596e-05
0.000101556
0.000144017
0.000252896
3.68703e-05
4.44598e-07
1.71148e-08
4.61888e-09
6.63647e-10
6.84274e-11
4.76217e-12
6.34726e-11
2.40754e-09
5.79552e-08
2.4009e-07
5.30182e-07
8.17487e-07
1.02078e-06
1.13653e-06
1.20183e-06
1.25357e-06
1.3117e-06
1.38059e-06
1.45753e-06
1.53953e-06
1.6255e-06
1.71569e-06
1.81066e-06
1.91084e-06
2.01655e-06
2.12809e-06
2.24576e-06
2.3699e-06
2.50087e-06
2.63904e-06
2.78481e-06
2.93858e-06
3.10079e-06
3.27192e-06
3.45236e-06
3.64289e-06
3.84335e-06
4.05449e-06
1.52264e-05
1.60255e-05
1.6868e-05
1.77531e-05
1.86804e-05
1.9651e-05
2.06667e-05
2.17299e-05
2.28414e-05
2.40036e-05
2.52172e-05
2.64852e-05
2.78071e-05
2.91846e-05
3.06197e-05
3.21144e-05
3.3669e-05
3.52878e-05
3.69701e-05
3.87217e-05
4.05461e-05
4.2451e-05
4.44429e-05
4.65362e-05
4.87457e-05
5.11e-05
5.36458e-05
5.64145e-05
5.96154e-05
6.32036e-05
6.81387e-05
7.37404e-05
8.38005e-05
0.000100343
0.000143826
0.000249068
3.78871e-05
6.76652e-07
8.43655e-08
4.19846e-10
1.5184e-10
3.02992e-11
6.26158e-12
1.03791e-10
3.08284e-09
3.05391e-08
1.61827e-07
4.12263e-07
7.06601e-07
9.49549e-07
1.10035e-06
1.1783e-06
1.22626e-06
1.27658e-06
1.34028e-06
1.41479e-06
1.49509e-06
1.57893e-06
1.6665e-06
1.75861e-06
1.85582e-06
1.95843e-06
2.06669e-06
2.18089e-06
2.30136e-06
2.42846e-06
2.56254e-06
2.70399e-06
2.8532e-06
3.0106e-06
3.17663e-06
3.35176e-06
3.53646e-06
3.73129e-06
3.93694e-06
4.15322e-06
4.38094e-06
1.08226e-05
1.14021e-05
1.20082e-05
1.2646e-05
1.33185e-05
1.40266e-05
1.47709e-05
1.5553e-05
1.63732e-05
1.72323e-05
1.81323e-05
1.90756e-05
2.00632e-05
2.1097e-05
2.21786e-05
2.33094e-05
2.44904e-05
2.57244e-05
2.70114e-05
2.83533e-05
2.97516e-05
3.12071e-05
3.27226e-05
3.43006e-05
3.59426e-05
3.76528e-05
3.94334e-05
4.12934e-05
4.32396e-05
4.52862e-05
4.74464e-05
4.9749e-05
5.22444e-05
5.49613e-05
5.811e-05
6.16181e-05
6.65123e-05
7.19794e-05
8.22497e-05
9.92038e-05
0.000143671
0.000244012
4.01125e-05
2.56339e-08
4.31038e-08
6.99467e-09
4.14075e-10
3.44618e-11
2.0976e-12
9.57736e-12
1.00981e-09
1.39437e-08
1.00832e-07
3.06141e-07
5.97419e-07
8.80316e-07
1.07333e-06
1.1656e-06
1.20414e-06
1.24043e-06
1.2967e-06
1.36978e-06
1.44994e-06
1.53234e-06
1.6172e-06
1.70619e-06
1.80028e-06
1.89977e-06
2.00476e-06
2.11548e-06
2.23227e-06
2.35546e-06
2.48542e-06
2.62252e-06
2.76714e-06
2.91969e-06
3.0806e-06
3.25033e-06
3.42934e-06
3.61814e-06
3.81721e-06
4.02719e-06
4.2488e-06
4.48182e-06
4.72757e-06
4.98697e-06
5.25997e-06
1.04881e-05
1.10484e-05
1.16369e-05
1.22576e-05
1.29116e-05
1.35992e-05
1.43212e-05
1.50789e-05
1.58736e-05
1.67069e-05
1.75808e-05
1.84965e-05
1.94556e-05
2.04597e-05
2.15099e-05
2.26089e-05
2.37565e-05
2.49559e-05
2.62072e-05
2.75123e-05
2.88724e-05
3.02894e-05
3.17656e-05
3.33015e-05
3.49014e-05
3.65675e-05
3.83048e-05
4.01196e-05
4.20194e-05
4.40147e-05
4.61245e-05
4.83744e-05
5.08151e-05
5.34786e-05
5.65723e-05
6.00099e-05
6.48765e-05
7.01948e-05
8.07303e-05
9.81613e-05
0.000143574
0.000237996
3.30173e-05
1.56076e-06
1.13696e-08
1.71905e-09
1.19436e-10
4.71552e-12
4.15747e-12
1.82295e-11
1.43305e-10
4.52162e-09
5.81836e-08
2.19956e-07
4.99251e-07
8.18292e-07
1.05953e-06
1.16937e-06
1.19243e-06
1.20544e-06
1.24914e-06
1.32086e-06
1.4031e-06
1.48562e-06
1.56809e-06
1.65366e-06
1.74437e-06
1.84064e-06
1.94236e-06
2.04962e-06
2.16271e-06
2.28198e-06
2.4078e-06
2.54053e-06
2.68054e-06
2.82822e-06
2.98398e-06
3.14828e-06
3.32155e-06
3.50429e-06
3.69702e-06
3.90025e-06
4.11451e-06
4.3405e-06
4.57881e-06
4.83e-06
5.09491e-06
5.37345e-06
5.66648e-06
1.01492e-05
1.06914e-05
1.12635e-05
1.18664e-05
1.25005e-05
1.31666e-05
1.38658e-05
1.45999e-05
1.53701e-05
1.6178e-05
1.70254e-05
1.79131e-05
1.88431e-05
1.9817e-05
2.08363e-05
2.19023e-05
2.30168e-05
2.41809e-05
2.53956e-05
2.66635e-05
2.79852e-05
2.93627e-05
3.07972e-05
3.22911e-05
3.38484e-05
3.54704e-05
3.71616e-05
3.89295e-05
4.07798e-05
4.27256e-05
4.47823e-05
4.69775e-05
4.93611e-05
5.19652e-05
5.50077e-05
5.83706e-05
6.32324e-05
6.8402e-05
7.92988e-05
9.72029e-05
0.000143656
0.000231836
1.26575e-05
2.79792e-07
4.04846e-10
2.82476e-10
2.66995e-11
5.87184e-12
1.05216e-11
1.34791e-11
1.72367e-10
5.39827e-10
3.04212e-08
1.52443e-07
4.09779e-07
7.5438e-07
1.04765e-06
1.18558e-06
1.19576e-06
1.1788e-06
1.20173e-06
1.26822e-06
1.35305e-06
1.43766e-06
1.51898e-06
1.60132e-06
1.68836e-06
1.78118e-06
1.87958e-06
1.98338e-06
2.09278e-06
2.20813e-06
2.32978e-06
2.45813e-06
2.59351e-06
2.7363e-06
2.88691e-06
3.04575e-06
3.21328e-06
3.38995e-06
3.57627e-06
3.77275e-06
3.97992e-06
4.19834e-06
4.42861e-06
4.67138e-06
4.92725e-06
5.19701e-06
5.48155e-06
5.78069e-06
6.09585e-06
6.42815e-06
6.77848e-06
7.14749e-06
7.53608e-06
7.94519e-06
8.37586e-06
8.82905e-06
9.30601e-06
9.80773e-06
1.03359e-05
1.08915e-05
1.14753e-05
1.20885e-05
1.27327e-05
1.34091e-05
1.41195e-05
1.48649e-05
1.5647e-05
1.64673e-05
1.7327e-05
1.82279e-05
1.91713e-05
2.01586e-05
2.11917e-05
2.2272e-05
2.34004e-05
2.4579e-05
2.58087e-05
2.70911e-05
2.84278e-05
2.98207e-05
3.12721e-05
3.27846e-05
3.43617e-05
3.60063e-05
3.77255e-05
3.95249e-05
4.14179e-05
4.34207e-05
4.55573e-05
4.78832e-05
5.04258e-05
5.34151e-05
5.67082e-05
6.15892e-05
6.66072e-05
7.79884e-05
9.64208e-05
0.000143542
0.000224735
7.07914e-06
1.26256e-07
2.3488e-09
9.71097e-10
9.05248e-11
3.69808e-12
2.28979e-12
1.7444e-11
1.11219e-10
1.28849e-09
1.40021e-08
9.88681e-08
3.20122e-07
6.67073e-07
1.00687e-06
1.19222e-06
1.21215e-06
1.1723e-06
1.16695e-06
1.2176e-06
1.2995e-06
1.38623e-06
1.46847e-06
1.54897e-06
1.6326e-06
1.72172e-06
1.81656e-06
1.91686e-06
2.02258e-06
2.13401e-06
2.25151e-06
2.37546e-06
2.50619e-06
2.64408e-06
2.78952e-06
2.94292e-06
3.10469e-06
3.27529e-06
3.4552e-06
3.64489e-06
3.84492e-06
4.05581e-06
4.27815e-06
4.51255e-06
4.75963e-06
5.02009e-06
5.2945e-06
5.58377e-06
5.88863e-06
6.2098e-06
6.54812e-06
6.90441e-06
7.2796e-06
7.67461e-06
8.0905e-06
8.52822e-06
8.98892e-06
9.47362e-06
9.98334e-06
1.05193e-05
1.10828e-05
1.1675e-05
1.22973e-05
1.29511e-05
1.36376e-05
1.4358e-05
1.51141e-05
1.59071e-05
1.67385e-05
1.76098e-05
1.85223e-05
1.94778e-05
2.04778e-05
2.15236e-05
2.2616e-05
2.37572e-05
2.49483e-05
2.61912e-05
2.74873e-05
2.88374e-05
3.0245e-05
3.17125e-05
3.32424e-05
3.48398e-05
3.65088e-05
3.82572e-05
4.00954e-05
4.20422e-05
4.41202e-05
4.63854e-05
4.88661e-05
5.17991e-05
5.5027e-05
5.99521e-05
6.48077e-05
7.69159e-05
9.5718e-05
0.000143328
0.000217251
1.03905e-05
8.70808e-08
1.51087e-08
1.2842e-09
4.76005e-11
2.69228e-11
7.13163e-12
6.77708e-12
3.50596e-11
3.62677e-10
4.77438e-09
5.66989e-08
2.2664e-07
5.41128e-07
9.0489e-07
1.15633e-06
1.22958e-06
1.19711e-06
1.16456e-06
1.18301e-06
1.24655e-06
1.32944e-06
1.4138e-06
1.49536e-06
1.57712e-06
1.66266e-06
1.75362e-06
1.85017e-06
1.95219e-06
2.05974e-06
2.17311e-06
2.29265e-06
2.41874e-06
2.55174e-06
2.69201e-06
2.83995e-06
2.99597e-06
3.16049e-06
3.33397e-06
3.51691e-06
3.7098e-06
3.91317e-06
4.12757e-06
4.35359e-06
4.59183e-06
4.84294e-06
5.10761e-06
5.3865e-06
5.68036e-06
5.98993e-06
6.31607e-06
6.65961e-06
7.0214e-06
7.40235e-06
7.8034e-06
8.22556e-06
8.66981e-06
9.13724e-06
9.62893e-06
1.0146e-05
1.06898e-05
1.12612e-05
1.18618e-05
1.24927e-05
1.3155e-05
1.38506e-05
1.45804e-05
1.53461e-05
1.61489e-05
1.69906e-05
1.78724e-05
1.87956e-05
1.97623e-05
2.07727e-05
2.1829e-05
2.29325e-05
2.40847e-05
2.52868e-05
2.65415e-05
2.78485e-05
2.9212e-05
3.06339e-05
3.21163e-05
3.36641e-05
3.52813e-05
3.69766e-05
3.87602e-05
4.06493e-05
4.26671e-05
4.48681e-05
4.72864e-05
5.01634e-05
5.33351e-05
5.83285e-05
6.30089e-05
7.61614e-05
9.5076e-05
0.000142713
0.000208863
2.33505e-05
1.49373e-06
1.64378e-07
1.6895e-09
7.83019e-11
8.61905e-12
4.53468e-13
1.55798e-12
1.08586e-11
1.29312e-10
6.35259e-10
2.60161e-08
1.3742e-07
3.87711e-07
7.40187e-07
1.0601e-06
1.23223e-06
1.25586e-06
1.21261e-06
1.18378e-06
1.20481e-06
1.26872e-06
1.35223e-06
1.438e-06
1.52111e-06
1.60428e-06
1.6912e-06
1.78362e-06
1.88174e-06
1.9854e-06
2.09467e-06
2.20985e-06
2.33131e-06
2.45942e-06
2.59453e-06
2.73702e-06
2.88728e-06
3.04574e-06
3.21284e-06
3.38902e-06
3.57479e-06
3.77065e-06
3.97712e-06
4.19478e-06
4.42422e-06
4.66604e-06
4.92091e-06
5.18946e-06
5.47247e-06
5.77063e-06
6.08472e-06
6.41557e-06
6.764e-06
7.13086e-06
7.51712e-06
7.92371e-06
8.3516e-06
8.80184e-06
9.27552e-06
9.77363e-06
1.02974e-05
1.08481e-05
1.14266e-05
1.20347e-05
1.2673e-05
1.33435e-05
1.40471e-05
1.47854e-05
1.55597e-05
1.63713e-05
1.72219e-05
1.81127e-05
1.90453e-05
2.00204e-05
2.10403e-05
2.21058e-05
2.32188e-05
2.43799e-05
2.55918e-05
2.68554e-05
2.81737e-05
2.95483e-05
3.09824e-05
3.24797e-05
3.40455e-05
3.56859e-05
3.74133e-05
3.92435e-05
4.12024e-05
4.33406e-05
4.56992e-05
4.85181e-05
5.16404e-05
5.67162e-05
6.12085e-05
7.58954e-05
9.42288e-05
0.000141788
0.000200012
4.35963e-05
2.65473e-06
2.10908e-07
1.38062e-08
2.0494e-10
2.53819e-11
8.69243e-13
1.05134e-12
7.97246e-12
5.18189e-11
9.94026e-10
7.9707e-09
6.67724e-08
2.40903e-07
5.51098e-07
9.19608e-07
1.21074e-06
1.33585e-06
1.31249e-06
1.23351e-06
1.18859e-06
1.21133e-06
1.28411e-06
1.37449e-06
1.46277e-06
1.54617e-06
1.62965e-06
1.71758e-06
1.81144e-06
1.91111e-06
2.01633e-06
2.1272e-06
2.24406e-06
2.36729e-06
2.49725e-06
2.63432e-06
2.77886e-06
2.93128e-06
3.092e-06
3.26146e-06
3.44013e-06
3.6285e-06
3.82708e-06
4.03642e-06
4.25708e-06
4.48965e-06
4.73477e-06
4.99304e-06
5.26522e-06
5.55193e-06
5.85401e-06
6.17218e-06
6.50728e-06
6.86012e-06
7.23164e-06
7.62265e-06
8.03427e-06
8.46732e-06
8.92296e-06
9.40216e-06
9.90613e-06
1.04359e-05
1.09927e-05
1.15778e-05
1.21921e-05
1.28374e-05
1.35147e-05
1.42255e-05
1.4971e-05
1.57526e-05
1.65718e-05
1.74301e-05
1.83285e-05
1.92684e-05
2.02516e-05
2.12783e-05
2.23513e-05
2.34713e-05
2.46405e-05
2.586e-05
2.71323e-05
2.84601e-05
2.98448e-05
3.12909e-05
3.28036e-05
3.43899e-05
3.60612e-05
3.78333e-05
3.9732e-05
4.18086e-05
4.41087e-05
4.68694e-05
4.99585e-05
5.51108e-05
5.94301e-05
7.62104e-05
9.2647e-05
0.000140675
0.000190612
3.89243e-05
2.40293e-06
2.01727e-07
1.8998e-08
1.41673e-09
1.02125e-10
8.72941e-12
1.33707e-12
5.02384e-12
2.24549e-11
4.56304e-10
8.33798e-10
2.36112e-08
1.30598e-07
3.83323e-07
7.66993e-07
1.15972e-06
1.40507e-06
1.43586e-06
1.32458e-06
1.20632e-06
1.16854e-06
1.21526e-06
1.30505e-06
1.40025e-06
1.48708e-06
1.5688e-06
1.65239e-06
1.74163e-06
1.83706e-06
1.93819e-06
2.04481e-06
2.15711e-06
2.2755e-06
2.40034e-06
2.53201e-06
2.67086e-06
2.81727e-06
2.97165e-06
3.13442e-06
3.30604e-06
3.48696e-06
3.67769e-06
3.87876e-06
4.09068e-06
4.31406e-06
4.54946e-06
4.79751e-06
5.05891e-06
5.33428e-06
5.62439e-06
5.92998e-06
6.25179e-06
6.59067e-06
6.94746e-06
7.32309e-06
7.71842e-06
8.1344e-06
8.57206e-06
9.03236e-06
9.51649e-06
1.00254e-05
1.05604e-05
1.11226e-05
1.17129e-05
1.23332e-05
1.29841e-05
1.36674e-05
1.43842e-05
1.51357e-05
1.59236e-05
1.6749e-05
1.76132e-05
1.85175e-05
1.94632e-05
2.04517e-05
2.14848e-05
2.25631e-05
2.3689e-05
2.48639e-05
2.609e-05
2.73692e-05
2.87048e-05
3.00997e-05
3.156e-05
3.30916e-05
3.47068e-05
3.64223e-05
3.82637e-05
4.02811e-05
4.25263e-05
4.5227e-05
4.82996e-05
5.34827e-05
5.77379e-05
7.69935e-05
9.01502e-05
0.000139872
0.000180834
3.89807e-05
2.92122e-06
2.20596e-07
2.08803e-08
5.04259e-11
2.06694e-11
2.39738e-12
2.317e-13
1.1056e-11
4.68353e-11
2.57738e-10
1.10742e-09
5.20784e-09
6.31683e-08
2.5528e-07
6.1731e-07
1.06471e-06
1.41407e-06
1.52434e-06
1.4195e-06
1.24919e-06
1.1484e-06
1.15565e-06
1.23438e-06
1.33361e-06
1.42562e-06
1.50783e-06
1.58803e-06
1.67257e-06
1.76348e-06
1.86039e-06
1.96278e-06
2.0706e-06
2.18419e-06
2.30395e-06
2.43025e-06
2.56343e-06
2.70388e-06
2.85196e-06
3.00808e-06
3.17269e-06
3.34622e-06
3.52915e-06
3.722e-06
3.92523e-06
4.13947e-06
4.36524e-06
4.60312e-06
4.8538e-06
5.11789e-06
5.3961e-06
5.68913e-06
5.99778e-06
6.32279e-06
6.66495e-06
7.0252e-06
7.40434e-06
7.80331e-06
8.22311e-06
8.66464e-06
9.12901e-06
9.61718e-06
1.01304e-05
1.06697e-05
1.12362e-05
1.18313e-05
1.24561e-05
1.31118e-05
1.37998e-05
1.45213e-05
1.52777e-05
1.60701e-05
1.69e-05
1.77686e-05
1.86773e-05
1.96273e-05
2.062e-05
2.16568e-05
2.274e-05
2.38697e-05
2.50499e-05
2.62806e-05
2.75672e-05
2.89117e-05
3.03206e-05
3.17991e-05
3.33603e-05
3.50199e-05
3.68057e-05
3.87663e-05
4.09607e-05
4.3601e-05
4.66778e-05
5.18055e-05
5.62358e-05
7.77403e-05
8.78637e-05
0.000139639
0.000171147
3.90764e-05
3.4954e-06
3.95982e-09
3.8434e-09
6.29534e-11
4.92018e-11
9.81599e-13
7.52148e-13
2.89116e-11
1.46629e-10
2.78852e-10
5.13902e-10
3.33189e-09
2.74732e-08
1.60681e-07
4.66832e-07
9.07851e-07
1.31648e-06
1.51316e-06
1.46248e-06
1.28854e-06
1.14721e-06
1.11313e-06
1.17016e-06
1.26598e-06
1.36159e-06
1.44571e-06
1.52394e-06
1.60427e-06
1.69055e-06
1.78309e-06
1.88119e-06
1.98457e-06
2.09343e-06
2.20814e-06
2.32911e-06
2.45668e-06
2.59119e-06
2.73302e-06
2.88255e-06
3.0402e-06
3.20639e-06
3.38158e-06
3.56625e-06
3.76089e-06
3.96603e-06
4.18222e-06
4.41001e-06
4.65006e-06
4.90294e-06
5.16935e-06
5.44994e-06
5.74547e-06
6.05666e-06
6.38429e-06
6.72924e-06
7.09229e-06
7.47431e-06
7.8763e-06
8.29917e-06
8.74388e-06
9.21139e-06
9.70301e-06
1.02195e-05
1.07622e-05
1.13323e-05
1.19309e-05
1.25592e-05
1.32185e-05
1.39101e-05
1.4635e-05
1.5395e-05
1.61908e-05
1.70238e-05
1.78955e-05
1.88069e-05
1.97598e-05
2.07554e-05
2.17957e-05
2.28818e-05
2.40157e-05
2.52004e-05
2.64386e-05
2.77332e-05
2.90913e-05
3.05187e-05
3.20279e-05
3.36357e-05
3.5369e-05
3.7277e-05
3.94234e-05
4.19998e-05
4.50942e-05
5.00664e-05
5.50046e-05
7.74458e-05
8.62296e-05
0.0001391
0.000162204
3.91782e-05
2.05443e-07
1.70382e-08
2.44941e-11
2.98886e-10
9.64409e-12
1.68775e-12
2.75438e-12
2.23081e-11
1.90893e-10
4.05531e-10
2.76736e-10
8.88299e-10
1.0342e-08
9.12903e-08
3.19921e-07
6.99953e-07
1.11075e-06
1.37668e-06
1.41323e-06
1.28966e-06
1.14804e-06
1.08673e-06
1.11822e-06
1.20238e-06
1.29676e-06
1.38209e-06
1.4594e-06
1.53639e-06
1.61829e-06
1.70638e-06
1.80014e-06
1.89908e-06
2.00324e-06
2.11296e-06
2.22864e-06
2.35063e-06
2.47927e-06
2.61489e-06
2.75788e-06
2.90862e-06
3.06753e-06
3.23504e-06
3.4116e-06
3.59769e-06
3.79383e-06
4.00052e-06
4.21829e-06
4.44778e-06
4.68953e-06
4.94421e-06
5.21245e-06
5.49497e-06
5.79248e-06
6.10567e-06
6.43541e-06
6.78245e-06
7.14769e-06
7.53199e-06
7.93626e-06
8.36146e-06
8.80851e-06
9.27861e-06
9.77256e-06
1.02916e-05
1.08369e-05
1.14095e-05
1.20107e-05
1.26415e-05
1.33036e-05
1.39975e-05
1.47249e-05
1.54872e-05
1.62851e-05
1.71202e-05
1.79942e-05
1.89079e-05
1.98629e-05
2.08614e-05
2.19046e-05
2.29941e-05
2.41337e-05
2.53251e-05
2.65726e-05
2.78826e-05
2.92608e-05
3.07207e-05
3.22788e-05
3.39624e-05
3.58196e-05
3.79213e-05
4.0438e-05
4.35427e-05
4.8305e-05
5.39583e-05
7.53203e-05
8.49446e-05
0.000136094
0.000154927
3.92741e-05
1.88643e-07
1.50235e-08
6.68747e-11
8.16319e-10
1.46704e-10
6.97505e-12
1.64015e-12
8.04217e-12
1.30874e-10
3.18442e-10
2.14611e-10
1.11216e-10
2.23695e-09
4.49949e-08
1.96973e-07
4.9065e-07
8.58868e-07
1.15803e-06
1.27963e-06
1.23582e-06
1.13094e-06
1.06612e-06
1.07804e-06
1.14625e-06
1.23383e-06
1.31774e-06
1.39409e-06
1.46852e-06
1.54657e-06
1.63034e-06
1.7197e-06
1.81418e-06
1.91367e-06
2.01845e-06
2.1289e-06
2.24537e-06
2.36817e-06
2.49765e-06
2.63415e-06
2.77806e-06
2.92975e-06
3.08965e-06
3.25819e-06
3.43582e-06
3.62303e-06
3.82031e-06
4.02818e-06
4.24721e-06
4.47795e-06
4.72103e-06
4.97703e-06
5.24668e-06
5.53061e-06
5.82953e-06
6.14428e-06
6.4755e-06
6.82411e-06
7.19094e-06
7.57682e-06
7.98274e-06
8.40958e-06
8.85838e-06
9.33018e-06
9.82591e-06
1.03468e-05
1.08939e-05
1.14684e-05
1.20714e-05
1.27041e-05
1.3368e-05
1.40637e-05
1.47928e-05
1.55567e-05
1.63564e-05
1.71937e-05
1.80695e-05
1.89856e-05
1.99439e-05
2.09456e-05
2.19931e-05
2.30892e-05
2.42368e-05
2.5439e-05
2.67033e-05
2.80361e-05
2.945e-05
3.09626e-05
3.26003e-05
3.44103e-05
3.64676e-05
3.89273e-05
4.20235e-05
4.65956e-05
5.28356e-05
7.17868e-05
8.38118e-05
0.000128564
0.000150076
3.93685e-05
3.06037e-06
2.43871e-07
5.53656e-10
2.87387e-11
1.02089e-10
1.19266e-11
5.19333e-13
1.43623e-12
3.86055e-11
7.24548e-11
5.18679e-11
1.94045e-10
1.96383e-09
1.87522e-08
1.10615e-07
3.23521e-07
6.32811e-07
9.31854e-07
1.10989e-06
1.14072e-06
1.08848e-06
1.04021e-06
1.04381e-06
1.0972e-06
1.17448e-06
1.25395e-06
1.32843e-06
1.40069e-06
1.47542e-06
1.55511e-06
1.64012e-06
1.73012e-06
1.82499e-06
1.9249e-06
2.03019e-06
2.14121e-06
2.25827e-06
2.38169e-06
2.5118e-06
2.64896e-06
2.79355e-06
2.94596e-06
3.10659e-06
3.27591e-06
3.45432e-06
3.64236e-06
3.84048e-06
4.04922e-06
4.26915e-06
4.50081e-06
4.74482e-06
5.00183e-06
5.27245e-06
5.5574e-06
5.85738e-06
6.17311e-06
6.50545e-06
6.85514e-06
7.22308e-06
7.61012e-06
8.01726e-06
8.44535e-06
8.89549e-06
9.3685e-06
9.86571e-06
1.0388e-05
1.09366e-05
1.15127e-05
1.21172e-05
1.27516e-05
1.34169e-05
1.41145e-05
1.48454e-05
1.56113e-05
1.64138e-05
1.72533e-05
1.81324e-05
1.90523e-05
2.00148e-05
2.10227e-05
2.2078e-05
2.31841e-05
2.43452e-05
2.55675e-05
2.68579e-05
2.82293e-05
2.9699e-05
3.12939e-05
3.30604e-05
3.50736e-05
3.74826e-05
4.05454e-05
4.49884e-05
5.14689e-05
6.84908e-05
8.17363e-05
0.000117802
0.000143363
3.93944e-05
5.89903e-07
1.31354e-09
3.26286e-09
3.68504e-10
5.87667e-11
1.52814e-12
4.03467e-13
2.14255e-12
1.17227e-12
5.15999e-12
9.96142e-12
4.6083e-11
4.79543e-10
5.70865e-09
5.4282e-08
1.98555e-07
4.47495e-07
7.30031e-07
9.41553e-07
1.03124e-06
1.03038e-06
1.00714e-06
1.01093e-06
1.0528e-06
1.11885e-06
1.19193e-06
1.26356e-06
1.3337e-06
1.40554e-06
1.48147e-06
1.56226e-06
1.64787e-06
1.73819e-06
1.83335e-06
1.93363e-06
2.03936e-06
2.15083e-06
2.26836e-06
2.39226e-06
2.52288e-06
2.66057e-06
2.80571e-06
2.95869e-06
3.11993e-06
3.28985e-06
3.46892e-06
3.65762e-06
3.85642e-06
4.0659e-06
4.28655e-06
4.51898e-06
4.7638e-06
5.02157e-06
5.29306e-06
5.57887e-06
5.87971e-06
6.19639e-06
6.52967e-06
6.88035e-06
7.24936e-06
7.63752e-06
8.04581e-06
8.47528e-06
8.92669e-06
9.40134e-06
9.90007e-06
1.0424e-05
1.09745e-05
1.15525e-05
1.21591e-05
1.27957e-05
1.34636e-05
1.41638e-05
1.48977e-05
1.56671e-05
1.64728e-05
1.73172e-05
1.82012e-05
1.91278e-05
2.00981e-05
2.11159e-05
2.21841e-05
2.33067e-05
2.44909e-05
2.5743e-05
2.70766e-05
2.85071e-05
3.00625e-05
3.17878e-05
3.37586e-05
3.61198e-05
3.91335e-05
4.34815e-05
4.98778e-05
6.60757e-05
7.8897e-05
0.000108318
0.000135485
3.94243e-05
2.16062e-06
1.87948e-08
1.53415e-09
5.7589e-10
6.33376e-11
5.87127e-12
9.49345e-14
7.73892e-15
1.34562e-12
5.10119e-12
5.00097e-12
9.52414e-12
1.5618e-10
3.19992e-10
1.98202e-08
1.0337e-07
2.85115e-07
5.36966e-07
7.71896e-07
9.16922e-07
9.68287e-07
9.73336e-07
9.80899e-07
1.01318e-06
1.06794e-06
1.13372e-06
1.20189e-06
1.26998e-06
1.33934e-06
1.41193e-06
1.48881e-06
1.57027e-06
1.6563e-06
1.74701e-06
1.84261e-06
1.94339e-06
2.04964e-06
2.16167e-06
2.27978e-06
2.4043e-06
2.53556e-06
2.67393e-06
2.81978e-06
2.97351e-06
3.13554e-06
3.30629e-06
3.48624e-06
3.67584e-06
3.87563e-06
4.08608e-06
4.30782e-06
4.54136e-06
4.78734e-06
5.04639e-06
5.31915e-06
5.60631e-06
5.90862e-06
6.22683e-06
6.56171e-06
6.91419e-06
7.28502e-06
7.67525e-06
8.08574e-06
8.5174e-06
8.97144e-06
9.44868e-06
9.95034e-06
1.04773e-05
1.10311e-05
1.16123e-05
1.22227e-05
1.28631e-05
1.35352e-05
1.42398e-05
1.49791e-05
1.57538e-05
1.65657e-05
1.74173e-05
1.831e-05
1.92466e-05
2.02299e-05
2.12635e-05
2.23522e-05
2.35013e-05
2.47188e-05
2.60172e-05
2.74122e-05
2.89302e-05
3.06163e-05
3.25457e-05
3.48598e-05
3.78187e-05
4.20773e-05
4.82886e-05
6.36597e-05
7.54516e-05
0.000101041
0.000127586
3.94465e-05
3.7455e-06
3.18557e-09
4.66103e-11
1.44374e-10
1.70008e-11
2.98673e-12
5.39033e-13
5.17419e-14
2.67898e-13
8.07297e-13
1.83216e-12
5.65513e-12
1.83943e-12
6.85569e-10
6.01946e-09
4.75953e-08
1.66047e-07
3.70707e-07
6.09646e-07
8.02335e-07
9.07483e-07
9.44366e-07
9.58327e-07
9.82624e-07
1.02684e-06
1.08543e-06
1.1501e-06
1.21637e-06
1.28383e-06
1.35382e-06
1.42755e-06
1.50558e-06
1.58806e-06
1.67508e-06
1.76682e-06
1.86354e-06
1.9655e-06
2.07301e-06
2.18637e-06
2.30589e-06
2.43189e-06
2.56472e-06
2.70475e-06
2.85236e-06
3.00794e-06
3.17193e-06
3.34474e-06
3.52688e-06
3.7188e-06
3.921e-06
4.13406e-06
4.35848e-06
4.59491e-06
4.84392e-06
5.10614e-06
5.38227e-06
5.67301e-06
5.97906e-06
6.3012e-06
6.64034e-06
6.99719e-06
7.37282e-06
7.76796e-06
8.18365e-06
8.62091e-06
9.08061e-06
9.56397e-06
1.00717e-05
1.06053e-05
1.11656e-05
1.1754e-05
1.23713e-05
1.30191e-05
1.36987e-05
1.44115e-05
1.51592e-05
1.5943e-05
1.67658e-05
1.76287e-05
1.85356e-05
1.94884e-05
2.04912e-05
2.15485e-05
2.26663e-05
2.3851e-05
2.51156e-05
2.64744e-05
2.79554e-05
2.96014e-05
3.14878e-05
3.37525e-05
3.66458e-05
4.0793e-05
4.67937e-05
6.12487e-05
7.23198e-05
9.56835e-05
0.000120663
3.94486e-05
1.50851e-06
1.20029e-07
2.8946e-11
2.57384e-10
3.60433e-11
6.72223e-12
1.53291e-14
1.57478e-14
4.84485e-14
3.24087e-13
2.00699e-12
5.04669e-12
1.8119e-11
2.09582e-10
3.75686e-09
3.49327e-08
1.31352e-07
3.12923e-07
5.46555e-07
7.5593e-07
8.83588e-07
9.3305e-07
9.47775e-07
9.67366e-07
1.00695e-06
1.06283e-06
1.1262e-06
1.19159e-06
1.25807e-06
1.32683e-06
1.39914e-06
1.47563e-06
1.5565e-06
1.64184e-06
1.73182e-06
1.82669e-06
1.92671e-06
2.03218e-06
2.14338e-06
2.26063e-06
2.38424e-06
2.51456e-06
2.65195e-06
2.79676e-06
2.94941e-06
3.1103e-06
3.27985e-06
3.45854e-06
3.64681e-06
3.84518e-06
4.05417e-06
4.27431e-06
4.50619e-06
4.75035e-06
5.00748e-06
5.27816e-06
5.56311e-06
5.863e-06
6.17856e-06
6.51079e-06
6.86037e-06
7.22844e-06
7.61571e-06
8.02308e-06
8.45145e-06
8.90165e-06
9.37481e-06
9.87163e-06
1.03935e-05
1.09411e-05
1.15157e-05
1.21182e-05
1.27499e-05
1.34127e-05
1.41071e-05
1.48357e-05
1.55993e-05
1.64009e-05
1.72417e-05
1.81255e-05
1.90539e-05
2.00308e-05
2.10603e-05
2.21484e-05
2.33007e-05
2.45296e-05
2.58485e-05
2.72855e-05
2.88813e-05
3.07133e-05
3.29148e-05
3.57241e-05
3.97312e-05
4.55077e-05
5.88661e-05
6.97135e-05
9.14504e-05
0.000115499
3.9444e-05
1.33351e-07
3.99721e-08
2.22045e-16
4.5798e-11
2.87232e-11
1.04882e-11
6.12775e-13
1.00779e-14
8.28439e-14
8.9412e-13
2.26818e-12
8.19604e-12
1.85561e-11
8.99778e-10
7.78981e-09
5.09839e-08
1.65724e-07
3.62536e-07
5.97892e-07
7.94852e-07
9.06046e-07
9.45233e-07
9.58551e-07
9.82058e-07
1.02623e-06
1.08496e-06
1.1495e-06
1.2155e-06
1.2828e-06
1.3528e-06
1.42661e-06
1.50469e-06
1.58718e-06
1.67422e-06
1.76598e-06
1.86272e-06
1.96473e-06
2.07229e-06
2.1857e-06
2.30528e-06
2.43134e-06
2.56424e-06
2.70434e-06
2.85201e-06
3.00766e-06
3.17169e-06
3.34457e-06
3.52671e-06
3.71863e-06
3.9208e-06
4.13377e-06
4.35807e-06
4.59425e-06
4.84292e-06
5.10473e-06
5.38022e-06
5.67018e-06
5.9752e-06
6.29604e-06
6.63359e-06
6.98858e-06
7.36206e-06
7.7547e-06
8.16739e-06
8.60083e-06
9.05595e-06
9.53367e-06
1.00347e-05
1.05602e-05
1.11107e-05
1.16874e-05
1.22909e-05
1.29224e-05
1.35832e-05
1.4274e-05
1.49968e-05
1.57529e-05
1.65455e-05
1.73773e-05
1.82505e-05
1.91656e-05
2.01251e-05
2.11326e-05
2.21929e-05
2.33131e-05
2.45023e-05
2.5774e-05
2.71538e-05
2.86848e-05
3.04431e-05
3.25604e-05
3.52631e-05
3.90908e-05
4.46313e-05
5.68564e-05
6.76262e-05
8.80703e-05
0.000112173
3.94189e-05
2.65738e-06
1.73434e-07
1.38588e-08
4.28506e-12
5.22139e-11
8.02224e-12
1.17193e-13
1.18538e-14
6.55423e-15
4.33536e-13
8.00226e-13
2.19217e-11
1.47055e-10
1.31201e-09
2.14475e-08
9.58529e-08
2.517e-07
4.7262e-07
6.94929e-07
8.54457e-07
9.34627e-07
9.65073e-07
9.85995e-07
1.02074e-06
1.07243e-06
1.13444e-06
1.20045e-06
1.26808e-06
1.33781e-06
1.41084e-06
1.48794e-06
1.56945e-06
1.6555e-06
1.74626e-06
1.84194e-06
1.94284e-06
2.04922e-06
2.16139e-06
2.27967e-06
2.40438e-06
2.53585e-06
2.67446e-06
2.82057e-06
2.97459e-06
3.13692e-06
3.308e-06
3.4883e-06
3.67826e-06
3.87843e-06
4.08926e-06
4.31138e-06
4.5453e-06
4.7916e-06
5.05097e-06
5.32397e-06
5.6113e-06
5.91364e-06
6.23172e-06
6.56627e-06
6.91802e-06
7.28783e-06
7.67653e-06
8.08478e-06
8.51369e-06
8.96377e-06
9.43618e-06
9.93161e-06
1.0451e-05
1.0995e-05
1.15646e-05
1.21606e-05
1.27837e-05
1.34347e-05
1.41145e-05
1.48236e-05
1.55638e-05
1.63356e-05
1.71417e-05
1.79842e-05
1.88643e-05
1.9782e-05
2.07389e-05
2.17368e-05
2.27817e-05
2.38838e-05
2.50524e-05
2.62966e-05
2.76371e-05
2.91175e-05
3.08122e-05
3.28467e-05
3.54363e-05
3.90705e-05
4.43786e-05
5.54121e-05
6.67191e-05
8.63623e-05
0.000113552
3.93831e-05
3.07879e-06
2.53114e-07
2.29554e-08
5.61825e-12
6.84489e-11
1.24786e-11
9.95194e-13
8.36128e-14
3.64176e-14
4.04953e-13
7.94763e-12
8.80245e-11
7.11906e-10
6.79063e-09
5.06619e-08
1.69526e-07
3.67364e-07
5.95581e-07
7.8658e-07
9.05248e-07
9.62855e-07
9.93253e-07
1.02509e-06
1.07038e-06
1.1281e-06
1.19285e-06
1.26076e-06
1.33086e-06
1.40381e-06
1.48054e-06
1.56158e-06
1.64717e-06
1.73748e-06
1.83271e-06
1.93313e-06
2.03901e-06
2.15065e-06
2.26838e-06
2.39251e-06
2.52339e-06
2.66137e-06
2.80683e-06
2.96017e-06
3.12181e-06
3.29217e-06
3.47172e-06
3.66093e-06
3.8603e-06
4.07034e-06
4.29164e-06
4.52472e-06
4.77021e-06
5.0287e-06
5.30085e-06
5.58735e-06
5.88885e-06
6.20609e-06
6.53986e-06
6.89089e-06
7.25994e-06
7.6479e-06
8.05556e-06
8.4837e-06
8.93344e-06
9.40538e-06
9.90058e-06
1.04198e-05
1.09641e-05
1.15342e-05
1.21309e-05
1.2755e-05
1.34076e-05
1.40889e-05
1.48004e-05
1.55417e-05
1.63146e-05
1.71191e-05
1.7956e-05
1.88258e-05
1.97298e-05
2.06679e-05
2.16411e-05
2.26504e-05
2.37016e-05
2.4802e-05
2.59617e-05
2.71883e-05
2.85066e-05
2.99596e-05
3.16243e-05
3.36117e-05
3.61205e-05
3.95985e-05
4.47131e-05
5.45802e-05
6.6899e-05
8.68939e-05
0.000119026
3.93302e-05
2.70964e-06
1.75692e-07
1.61329e-08
1.45766e-09
4.8351e-11
7.5184e-12
1.86454e-13
4.39883e-14
1.65551e-13
2.4314e-12
1.77678e-11
1.48877e-10
6.02329e-10
2.09559e-08
1.02699e-07
2.71422e-07
4.97496e-07
7.12302e-07
8.64619e-07
9.49766e-07
9.9439e-07
1.02865e-06
1.07039e-06
1.12399e-06
1.18649e-06
1.25391e-06
1.32419e-06
1.39724e-06
1.47377e-06
1.55443e-06
1.63962e-06
1.72953e-06
1.82437e-06
1.92438e-06
2.02983e-06
2.14103e-06
2.25829e-06
2.38193e-06
2.5123e-06
2.64976e-06
2.79468e-06
2.94745e-06