/*--------------------------------*- C++ -*----------------------------------*\
  =========                 |
  \\      /  F ield         | OpenFOAM: The Open Source CFD Toolbox
   \\    /   O peration     | Website:  https://openfoam.org
    \\  /    A nd           | Version:  9
     \\/     M anipulation  |
\*---------------------------------------------------------------------------*/
FoamFile
{
    format      ascii;
    class       volScalarField;
    location    "2250";
    object      nut;
}
// * * * * * * * * * * * * * * * * * * * * * * * * * * * * * * * * * * * * * //

dimensions      [0 2 -1 0 0 0 0];

internalField   nonuniform List<scalar> 
13446
(
9.10011e-07
9.10219e-07
7.76517e-07
9.10415e-07
4.7076e-07
1.19833e-07
7.59271e-07
7.23367e-07
9.10646e-07
5.10033e-07
1.06241e-06
5.9967e-07
9.20915e-07
4.14633e-06
9.10803e-07
5.69492e-07
2.45611e-07
4.88351e-07
4.55679e-07
1.41435e-08
1.01659e-07
9.10902e-07
5.99532e-07
4.481e-07
3.20305e-06
3.1415e-08
9.48291e-10
1.74902e-08
1.3018e-07
7.42683e-07
8.81027e-07
8.55887e-07
8.26177e-07
8.06799e-07
7.96601e-07
7.93464e-07
7.94447e-07
7.96434e-07
7.97736e-07
7.98261e-07
7.98504e-07
7.98794e-07
7.99189e-07
7.99641e-07
8.00113e-07
8.00598e-07
8.011e-07
8.01622e-07
8.02167e-07
8.02736e-07
8.03328e-07
8.03943e-07
9.11078e-07
9.71667e-06
5.52852e-05
2.20999e-07
2.26477e-08
2.17299e-10
1.31765e-09
4.32386e-09
1.66492e-07
6.58172e-07
8.98694e-07
8.73753e-07
8.26197e-07
8.00571e-07
7.92702e-07
7.93425e-07
7.9611e-07
7.97926e-07
7.98649e-07
7.98899e-07
7.99138e-07
7.99494e-07
7.99928e-07
8.00391e-07
8.00866e-07
8.01356e-07
8.01865e-07
8.02396e-07
8.0295e-07
8.03526e-07
8.04128e-07
8.04751e-07
8.05401e-07
8.66591e-07
8.68144e-07
8.69277e-07
8.69997e-07
8.7031e-07
8.70166e-07
8.69575e-07
8.68706e-07
8.67708e-07
8.66606e-07
8.65362e-07
8.63967e-07
8.62464e-07
8.60905e-07
8.59329e-07
8.57661e-07
8.56106e-07
8.54994e-07
8.56212e-07
8.60117e-07
8.71303e-07
8.85026e-07
9.1707e-07
9.59055e-07
1.16632e-06
3.29972e-07
9.11338e-07
1.68774e-06
1.65441e-06
3.25778e-08
8.01407e-09
1.7672e-10
2.51268e-10
3.02865e-09
4.17925e-08
3.72927e-07
9.98123e-07
9.98024e-07
8.69618e-07
8.0731e-07
7.89849e-07
7.90895e-07
7.95413e-07
7.9819e-07
7.99129e-07
7.9932e-07
7.99474e-07
7.99785e-07
8.00204e-07
8.0066e-07
8.01126e-07
8.01603e-07
8.02099e-07
8.02615e-07
8.03154e-07
8.03715e-07
8.043e-07
8.04911e-07
8.05549e-07
8.06207e-07
8.63641e-07
8.65501e-07
8.67019e-07
8.6813e-07
8.6885e-07
8.69134e-07
8.68935e-07
8.68358e-07
8.67609e-07
8.66765e-07
8.65794e-07
8.64668e-07
8.63406e-07
8.62062e-07
8.60677e-07
8.59286e-07
8.5783e-07
8.56479e-07
8.55416e-07
8.56394e-07
8.59663e-07
8.70434e-07
8.83698e-07
9.16599e-07
9.62519e-07
1.16554e-06
3.28672e-07
9.1159e-07
1.13776e-07
3.32226e-08
7.58928e-09
4.24474e-10
5.28457e-11
3.68246e-11
7.82859e-10
1.33573e-08
1.95127e-07
1.16447e-06
1.25092e-06
9.38301e-07
8.16309e-07
7.85073e-07
7.8676e-07
7.94271e-07
7.9862e-07
7.99818e-07
7.99821e-07
7.99807e-07
8.00058e-07
8.00471e-07
8.00928e-07
8.01386e-07
8.01851e-07
8.02332e-07
8.02834e-07
8.03357e-07
8.03903e-07
8.04472e-07
8.05065e-07
8.05684e-07
8.06331e-07
8.07001e-07
8.077e-07
8.60538e-07
8.62582e-07
8.64398e-07
8.6586e-07
8.66942e-07
8.67639e-07
8.67852e-07
8.67607e-07
8.67114e-07
8.66504e-07
8.65791e-07
8.64925e-07
8.63906e-07
8.62777e-07
8.61587e-07
8.60369e-07
8.59149e-07
8.5789e-07
8.56767e-07
8.55849e-07
8.56736e-07
8.59484e-07
8.69854e-07
8.82589e-07
9.16243e-07
9.66092e-07
1.16738e-06
3.23759e-07
9.10967e-07
6.12426e-07
1.64086e-07
2.56661e-09
4.30915e-10
4.16284e-11
2.95824e-11
1.82089e-10
4.59747e-09
1.08375e-07
1.26792e-06
1.56708e-06
9.95888e-07
8.221e-07
7.80733e-07
7.82876e-07
7.93042e-07
7.99089e-07
8.00659e-07
8.0043e-07
8.00164e-07
8.00311e-07
8.00718e-07
8.01187e-07
8.01644e-07
8.02096e-07
8.02561e-07
8.03048e-07
8.03557e-07
8.04088e-07
8.04641e-07
8.05217e-07
8.05818e-07
8.06445e-07
8.071e-07
8.07784e-07
8.08491e-07
8.45019e-07
8.46966e-07
8.48972e-07
8.51025e-07
8.53116e-07
8.55239e-07
8.57383e-07
8.59506e-07
8.6151e-07
8.63258e-07
8.64666e-07
8.6572e-07
8.66349e-07
8.66462e-07
8.66249e-07
8.65874e-07
8.65391e-07
8.64775e-07
8.63997e-07
8.63085e-07
8.62093e-07
8.61056e-07
8.59987e-07
8.58918e-07
8.57846e-07
8.56965e-07
8.56263e-07
8.57202e-07
8.59568e-07
8.69629e-07
8.81757e-07
9.16237e-07
9.69929e-07
1.1705e-06
3.15178e-07
9.12875e-07
4.278e-07
2.66528e-09
3.59508e-10
1.20945e-10
7.28692e-11
3.22829e-12
2.61588e-11
1.23604e-09
6.56832e-08
9.34432e-07
1.40702e-06
9.58234e-07
8.15318e-07
7.81888e-07
7.84084e-07
7.93141e-07
7.99075e-07
8.01016e-07
8.0096e-07
8.0061e-07
8.00624e-07
8.00967e-07
8.01429e-07
8.01891e-07
8.02337e-07
8.02789e-07
8.0326e-07
8.03753e-07
8.04269e-07
8.04806e-07
8.05365e-07
8.05949e-07
8.06557e-07
8.07192e-07
8.07854e-07
8.08547e-07
8.09266e-07
8.10015e-07
8.42292e-07
8.44173e-07
8.46112e-07
8.48097e-07
8.50122e-07
8.52182e-07
8.54276e-07
8.56388e-07
8.58463e-07
8.60402e-07
8.62078e-07
8.63439e-07
8.64435e-07
8.64934e-07
8.65023e-07
8.64893e-07
8.64632e-07
8.64245e-07
8.63701e-07
8.63008e-07
8.62206e-07
8.6135e-07
8.60458e-07
8.5953e-07
8.58602e-07
8.57707e-07
8.57067e-07
8.56627e-07
8.57745e-07
8.59893e-07
8.69786e-07
8.81262e-07
9.16781e-07
9.73964e-07
1.17494e-06
3.05716e-07
9.59688e-07
4.29696e-08
1.19307e-09
1.13908e-11
2.38132e-11
4.80174e-11
1.46859e-11
8.11262e-11
2.4875e-09
4.38743e-08
4.21244e-07
7.78413e-07
7.95578e-07
7.93429e-07
7.97712e-07
7.99064e-07
7.97854e-07
7.9775e-07
7.99212e-07
8.00604e-07
8.01135e-07
8.012e-07
8.01329e-07
8.01664e-07
8.02107e-07
8.02563e-07
8.03013e-07
8.0347e-07
8.03946e-07
8.04445e-07
8.04966e-07
8.05509e-07
8.06075e-07
8.06665e-07
8.07281e-07
8.07923e-07
8.08594e-07
8.09294e-07
8.10025e-07
8.10785e-07
8.11574e-07
8.31353e-07
8.32918e-07
8.34521e-07
8.36177e-07
8.3789e-07
8.39656e-07
8.41472e-07
8.43337e-07
8.45246e-07
8.47196e-07
8.49186e-07
8.51216e-07
8.53278e-07
8.55354e-07
8.57381e-07
8.59252e-07
8.60861e-07
8.62167e-07
8.63033e-07
8.63464e-07
8.63592e-07
8.63539e-07
8.63363e-07
8.63046e-07
8.62569e-07
8.61961e-07
8.61275e-07
8.6055e-07
8.5979e-07
8.5899e-07
8.58195e-07
8.57467e-07
8.57069e-07
8.56918e-07
8.58321e-07
8.6041e-07
8.70342e-07
8.81178e-07
9.17977e-07
9.79197e-07
1.17866e-06
2.94091e-07
1.14055e-06
5.12034e-10
1.19316e-10
7.68896e-11
4.23495e-11
4.04922e-11
3.29336e-12
2.27553e-11
2.80859e-09
3.16674e-08
1.67003e-07
3.79149e-07
6.00911e-07
7.69254e-07
8.44101e-07
8.41977e-07
8.13579e-07
7.94995e-07
7.92711e-07
7.97555e-07
8.0132e-07
8.02285e-07
8.02055e-07
8.01972e-07
8.02277e-07
8.02748e-07
8.03223e-07
8.03678e-07
8.04138e-07
8.04618e-07
8.05122e-07
8.05649e-07
8.06197e-07
8.06769e-07
8.07365e-07
8.07987e-07
8.08637e-07
8.09314e-07
8.10021e-07
8.1076e-07
8.11532e-07
8.12333e-07
8.13169e-07
8.14045e-07
8.14954e-07
8.30748e-07
8.32271e-07
8.33842e-07
8.35469e-07
8.37151e-07
8.38883e-07
8.40662e-07
8.42488e-07
8.44359e-07
8.46274e-07
8.48232e-07
8.50229e-07
8.52259e-07
8.54294e-07
8.56263e-07
8.58062e-07
8.59605e-07
8.60819e-07
8.61568e-07
8.61966e-07
8.62138e-07
8.62168e-07
8.62058e-07
8.61787e-07
8.6137e-07
8.60858e-07
8.60294e-07
8.59694e-07
8.5905e-07
8.58365e-07
8.57701e-07
8.57141e-07
8.56976e-07
8.57123e-07
8.58885e-07
8.61072e-07
8.71322e-07
8.8152e-07
9.19898e-07
9.86085e-07
1.18118e-06
2.79045e-07
2.92906e-07
1.5227e-08
5.9441e-12
8.85644e-12
6.02431e-12
4.27288e-13
1.13418e-12
3.52286e-11
1.70892e-08
1.39129e-08
6.97163e-08
2.00868e-07
4.49086e-07
7.58911e-07
9.43396e-07
9.33795e-07
8.50921e-07
7.93736e-07
7.80128e-07
7.89481e-07
7.9994e-07
8.03781e-07
8.0343e-07
8.02547e-07
8.02441e-07
8.02869e-07
8.03399e-07
8.03878e-07
8.04327e-07
8.04788e-07
8.05273e-07
8.05782e-07
8.06313e-07
8.06867e-07
8.07444e-07
8.08046e-07
8.08674e-07
8.09329e-07
8.10014e-07
8.10728e-07
8.11473e-07
8.12252e-07
8.13065e-07
8.13913e-07
8.14798e-07
8.15717e-07
8.16671e-07
8.30121e-07
8.31607e-07
8.33149e-07
8.34745e-07
8.36391e-07
8.38085e-07
8.39827e-07
8.41616e-07
8.43451e-07
8.45332e-07
8.47255e-07
8.49219e-07
8.51212e-07
8.53201e-07
8.55107e-07
8.56828e-07
8.58297e-07
8.59352e-07
8.60047e-07
8.60457e-07
8.60685e-07
8.60765e-07
8.60689e-07
8.6046e-07
8.60118e-07
8.59711e-07
8.5926e-07
8.58768e-07
8.58229e-07
8.57655e-07
8.57122e-07
8.5673e-07
8.5679e-07
8.5723e-07
8.59406e-07
8.61821e-07
8.72702e-07
8.82326e-07
9.22828e-07
9.94755e-07
1.18313e-06
2.64857e-07
2.92555e-08
1.73252e-10
2.6952e-14
3.06849e-13
3.12188e-13
1.5478e-13
1.19544e-12
2.90155e-11
1.87513e-09
1.28794e-09
2.82937e-08
1.14314e-07
3.4097e-07
7.59171e-07
1.11244e-06
1.09712e-06
9.23055e-07
8.02687e-07
7.65466e-07
7.7597e-07
7.95151e-07
8.04596e-07
8.0531e-07
8.03603e-07
8.02758e-07
8.02959e-07
8.0352e-07
8.04052e-07
8.0451e-07
8.04954e-07
8.05418e-07
8.05909e-07
8.06423e-07
8.06958e-07
8.07516e-07
8.08098e-07
8.08705e-07
8.09338e-07
8.1e-07
8.1069e-07
8.11411e-07
8.12163e-07
8.12948e-07
8.13768e-07
8.14623e-07
8.15515e-07
8.16447e-07
8.17414e-07
8.1842e-07
8.1947e-07
8.20564e-07
8.21701e-07
8.22882e-07
8.24109e-07
8.25381e-07
8.26699e-07
8.28065e-07
8.29478e-07
8.30941e-07
8.32453e-07
8.34013e-07
8.35619e-07
8.37274e-07
8.38977e-07
8.40728e-07
8.42526e-07
8.44369e-07
8.46257e-07
8.48185e-07
8.5014e-07
8.52075e-07
8.53906e-07
8.55545e-07
8.56906e-07
8.57867e-07
8.58525e-07
8.58942e-07
8.59199e-07
8.59307e-07
8.59257e-07
8.59079e-07
8.58824e-07
8.5852e-07
8.58169e-07
8.5777e-07
8.57323e-07
8.56856e-07
8.56456e-07
8.56233e-07
8.56512e-07
8.57237e-07
8.5986e-07
8.62611e-07
8.74471e-07
8.8359e-07
9.27045e-07
1.00549e-06
1.1841e-06
2.48933e-07
4.36099e-10
6.3363e-13
9.6458e-16
5.98261e-14
1.09224e-13
4.41601e-14
2.4884e-11
4.73593e-11
1.03802e-09
1.91302e-09
1.01798e-08
6.46111e-08
2.54881e-07
7.36092e-07
1.32072e-06
1.32961e-06
1.03789e-06
8.37137e-07
7.62273e-07
7.62746e-07
7.86253e-07
8.02364e-07
8.06384e-07
8.04981e-07
8.03466e-07
8.03184e-07
8.03619e-07
8.04179e-07
8.04669e-07
8.05112e-07
8.05558e-07
8.06028e-07
8.06524e-07
8.07041e-07
8.0758e-07
8.08142e-07
8.08728e-07
8.09339e-07
8.09978e-07
8.10644e-07
8.1134e-07
8.12066e-07
8.12825e-07
8.13617e-07
8.14444e-07
8.15306e-07
8.16205e-07
8.17143e-07
8.18121e-07
8.19139e-07
8.20198e-07
8.213e-07
8.22446e-07
8.23635e-07
8.24871e-07
8.26151e-07
8.27479e-07
8.28854e-07
8.30276e-07
8.31746e-07
8.33264e-07
8.34831e-07
8.36446e-07
8.3811e-07
8.39821e-07
8.4158e-07
8.43386e-07
8.45236e-07
8.47126e-07
8.49034e-07
8.50905e-07
8.5265e-07
8.54196e-07
8.55432e-07
8.56331e-07
8.56948e-07
8.57384e-07
8.57669e-07
8.57793e-07
8.57772e-07
8.5766e-07
8.57492e-07
8.57276e-07
8.5701e-07
8.56693e-07
8.56333e-07
8.5597e-07
8.55708e-07
8.55655e-07
8.56145e-07
8.57148e-07
8.6023e-07
8.63404e-07
8.76599e-07
8.85154e-07
9.3343e-07
1.01721e-06
1.18409e-06
2.33266e-07
3.70269e-09
2.53515e-12
3.37913e-12
2.09824e-12
2.8705e-13
5.86011e-13
1.43801e-12
2.01422e-11
3.57032e-08
3.49492e-10
2.80866e-09
3.39645e-08
1.78035e-07
6.44909e-07
1.42795e-06
1.54831e-06
1.18573e-06
9.17092e-07
7.94255e-07
7.64789e-07
7.76931e-07
7.94623e-07
8.03804e-07
8.05529e-07
8.04594e-07
8.03839e-07
8.03847e-07
8.04275e-07
8.04779e-07
8.05246e-07
8.05689e-07
8.06141e-07
8.06616e-07
8.07114e-07
8.07634e-07
8.08176e-07
8.08741e-07
8.09331e-07
8.09946e-07
8.10589e-07
8.1126e-07
8.11961e-07
8.12693e-07
8.13457e-07
8.14254e-07
8.15087e-07
8.15956e-07
8.16862e-07
8.17806e-07
8.1879e-07
8.19815e-07
8.20881e-07
8.21991e-07
8.23144e-07
8.24342e-07
8.25584e-07
8.26873e-07
8.28209e-07
8.29592e-07
8.31022e-07
8.325e-07
8.34027e-07
8.35601e-07
8.37224e-07
8.38895e-07
8.40614e-07
8.4238e-07
8.44191e-07
8.46039e-07
8.47892e-07
8.49686e-07
8.51332e-07
8.52774e-07
8.53917e-07
8.54747e-07
8.5536e-07
8.55806e-07
8.56088e-07
8.56221e-07
8.56247e-07
8.56207e-07
8.56116e-07
8.55972e-07
8.55776e-07
8.55527e-07
8.55251e-07
8.54998e-07
8.54874e-07
8.54991e-07
8.55684e-07
8.56966e-07
8.60511e-07
8.6417e-07
8.7904e-07
8.86851e-07
9.42893e-07
1.02868e-06
1.18205e-06
2.15878e-07
4.63766e-08
9.22388e-09
1.85472e-10
1.2681e-11
2.59982e-12
9.70457e-13
1.29676e-13
1.91185e-12
2.47071e-11
9.75361e-11
3.46326e-10
1.53032e-08
1.10108e-07
4.9132e-07
1.30135e-06
1.61593e-06
1.34344e-06
1.06628e-06
8.92535e-07
8.0519e-07
7.77582e-07
7.81771e-07
7.94325e-07
8.02841e-07
8.05468e-07
8.05125e-07
8.04484e-07
8.04445e-07
8.04835e-07
8.0533e-07
8.05797e-07
8.06244e-07
8.06698e-07
8.07175e-07
8.07676e-07
8.08198e-07
8.08743e-07
8.09311e-07
8.09904e-07
8.10523e-07
8.1117e-07
8.11845e-07
8.1255e-07
8.13286e-07
8.14056e-07
8.14859e-07
8.15697e-07
8.16571e-07
8.17483e-07
8.18433e-07
8.19423e-07
8.20455e-07
8.21528e-07
8.22644e-07
8.23803e-07
8.25008e-07
8.26257e-07
8.27553e-07
8.28895e-07
8.30285e-07
8.31722e-07
8.33207e-07
8.3474e-07
8.36322e-07
8.37951e-07
8.39629e-07
8.41354e-07
8.43124e-07
8.44925e-07
8.46716e-07
8.48427e-07
8.49978e-07
8.51322e-07
8.52368e-07
8.53146e-07
8.5374e-07
8.54171e-07
8.54444e-07
8.54605e-07
8.54686e-07
8.54708e-07
8.54677e-07
8.54591e-07
8.54452e-07
8.54271e-07
8.54079e-07
8.53939e-07
8.53954e-07
8.54242e-07
8.55138e-07
8.56705e-07
8.60698e-07
8.64907e-07
8.81732e-07
8.88382e-07
9.56985e-07
1.03631e-06
1.17573e-06
1.99128e-07
1.32869e-06
8.39379e-08
1.41978e-09
2.67536e-10
2.07088e-11
4.20814e-11
2.91436e-12
3.38915e-12
7.60089e-12
3.02371e-11
5.2587e-10
4.92161e-09
5.9195e-08
3.48201e-07
1.08086e-06
1.56377e-06
1.52377e-06
1.31925e-06
1.09296e-06
9.09416e-07
8.03412e-07
7.69735e-07
7.77263e-07
7.94269e-07
8.04459e-07
8.06738e-07
8.05772e-07
8.04906e-07
8.04897e-07
8.05348e-07
8.05863e-07
8.06329e-07
8.06772e-07
8.07227e-07
8.07706e-07
8.08208e-07
8.08733e-07
8.0928e-07
8.0985e-07
8.10446e-07
8.11068e-07
8.11718e-07
8.12397e-07
8.13106e-07
8.13847e-07
8.1462e-07
8.15428e-07
8.1627e-07
8.17149e-07
8.18066e-07
8.19022e-07
8.20017e-07
8.21054e-07
8.22132e-07
8.23254e-07
8.24419e-07
8.25629e-07
8.26884e-07
8.28186e-07
8.29534e-07
8.30929e-07
8.32372e-07
8.33863e-07
8.35402e-07
8.36988e-07
8.38624e-07
8.40306e-07
8.42032e-07
8.43778e-07
8.45496e-07
8.47111e-07
8.48564e-07
8.49796e-07
8.50744e-07
8.51488e-07
8.5206e-07
8.52469e-07
8.52756e-07
8.52951e-07
8.53077e-07
8.53147e-07
8.53164e-07
8.53125e-07
8.53038e-07
8.52925e-07
8.52824e-07
8.52801e-07
8.52956e-07
8.53412e-07
8.54509e-07
8.56369e-07
8.60781e-07
8.65628e-07
8.84539e-07
8.89705e-07
9.76941e-07
1.00702e-06
9.69691e-07
1.82802e-07
9.17214e-07
2.99536e-07
8.94847e-09
1.08809e-09
1.98098e-10
6.66915e-11
1.67407e-10
2.12749e-12
3.35745e-12
1.16463e-11
2.46535e-10
5.88916e-10
2.70982e-08
2.68622e-07
1.01387e-06
1.6306e-06
1.83744e-06
1.74191e-06
1.43168e-06
1.09448e-06
8.6727e-07
7.68989e-07
7.57224e-07
7.79314e-07
7.99665e-07
8.07619e-07
8.07596e-07
8.05865e-07
8.05112e-07
8.05329e-07
8.05868e-07
8.06382e-07
8.06832e-07
8.07269e-07
8.07725e-07
8.08207e-07
8.08711e-07
8.09237e-07
8.09786e-07
8.10359e-07
8.10957e-07
8.11582e-07
8.12235e-07
8.12917e-07
8.13629e-07
8.14373e-07
8.1515e-07
8.15961e-07
8.16808e-07
8.17691e-07
8.18612e-07
8.19572e-07
8.20572e-07
8.21613e-07
8.22696e-07
8.23822e-07
8.24991e-07
8.26206e-07
8.27465e-07
8.28771e-07
8.30124e-07
8.31523e-07
8.32971e-07
8.34466e-07
8.36009e-07
8.37601e-07
8.39239e-07
8.40916e-07
8.42604e-07
8.44245e-07
8.45767e-07
8.47122e-07
8.48225e-07
8.49088e-07
8.49786e-07
8.50316e-07
8.50718e-07
8.51017e-07
8.5124e-07
8.514e-07
8.51506e-07
8.51559e-07
8.51564e-07
8.51533e-07
8.51494e-07
8.5149e-07
8.51585e-07
8.51879e-07
8.52506e-07
8.53804e-07
8.55973e-07
8.6076e-07
8.66372e-07
8.87161e-07
8.91124e-07
1.00259e-06
7.70991e-07
7.01601e-07
1.65132e-07
9.13676e-07
7.19026e-07
6.06676e-08
6.67225e-09
1.96317e-11
1.57804e-11
2.03042e-12
1.28259e-13
4.98674e-12
2.19466e-11
1.54142e-10
1.05886e-09
1.04441e-08
3.03083e-07
1.42249e-06
2.16531e-06
2.53509e-06
2.44067e-06
1.91494e-06
1.34743e-06
9.69086e-07
7.89024e-07
7.43321e-07
7.61578e-07
7.90556e-07
8.06386e-07
8.09286e-07
8.07298e-07
8.05629e-07
8.05359e-07
8.05823e-07
8.06393e-07
8.06875e-07
8.07304e-07
8.07738e-07
8.08197e-07
8.0868e-07
8.09186e-07
8.09714e-07
8.10264e-07
8.10838e-07
8.11438e-07
8.12065e-07
8.1272e-07
8.13404e-07
8.14119e-07
8.14866e-07
8.15646e-07
8.1646e-07
8.1731e-07
8.18196e-07
8.1912e-07
8.20083e-07
8.21086e-07
8.2213e-07
8.23216e-07
8.24345e-07
8.25518e-07
8.26736e-07
8.27998e-07
8.29307e-07
8.30662e-07
8.32065e-07
8.33515e-07
8.35012e-07
8.36558e-07
8.38149e-07
8.39769e-07
8.41378e-07
8.42913e-07
8.44309e-07
8.45526e-07
8.46518e-07
8.47335e-07
8.47994e-07
8.48501e-07
8.48896e-07
8.49208e-07
8.49454e-07
8.49642e-07
8.49779e-07
8.49866e-07
8.49918e-07
8.49951e-07
8.49997e-07
8.50094e-07
8.50306e-07
8.50736e-07
8.51533e-07
8.53033e-07
8.5552e-07
8.60632e-07
8.67176e-07
8.89275e-07
8.93509e-07
1.03105e-06
6.06663e-07
4.56822e-07
1.41219e-07
9.12704e-07
8.0567e-07
2.11322e-08
3.09956e-08
6.67291e-11
2.39038e-11
3.47973e-13
2.50493e-13
1.07825e-11
7.20564e-11
2.22175e-10
9.09252e-10
2.13903e-08
2.33013e-06
5.11452e-06
3.92925e-06
3.89118e-06
3.33053e-06
2.39532e-06
1.5934e-06
1.0869e-06
8.31234e-07
7.44115e-07
7.47795e-07
7.79282e-07
8.02465e-07
8.09914e-07
8.08809e-07
8.06453e-07
8.05532e-07
8.05777e-07
8.06365e-07
8.06892e-07
8.07329e-07
8.07744e-07
8.08179e-07
8.08641e-07
8.09127e-07
8.09633e-07
8.10161e-07
8.10712e-07
8.11288e-07
8.11889e-07
8.12517e-07
8.13173e-07
8.13859e-07
8.14576e-07
8.15324e-07
8.16106e-07
8.16922e-07
8.17773e-07
8.18661e-07
8.19587e-07
8.20552e-07
8.21556e-07
8.22602e-07
8.2369e-07
8.2482e-07
8.25994e-07
8.27213e-07
8.28477e-07
8.29786e-07
8.31142e-07
8.32545e-07
8.33996e-07
8.35493e-07
8.3703e-07
8.38581e-07
8.40096e-07
8.41513e-07
8.42778e-07
8.43866e-07
8.44776e-07
8.45528e-07
8.46124e-07
8.46606e-07
8.47001e-07
8.47326e-07
8.47594e-07
8.47808e-07
8.47973e-07
8.48103e-07
8.4821e-07
8.48313e-07
8.48444e-07
8.4864e-07
8.48967e-07
8.49534e-07
8.50502e-07
8.52207e-07
8.55019e-07
8.60427e-07
8.68035e-07
8.90652e-07
8.97792e-07
1.05629e-06
5.51496e-07
2.93871e-07
1.15293e-07
9.1287e-07
1.45858e-07
6.50925e-08
1.8443e-11
8.57704e-11
2.15432e-12
3.97757e-13
8.10266e-13
9.41187e-12
1.38289e-10
6.78115e-10
2.06408e-09
4.85427e-08
8.19371e-07
3.20474e-06
4.3395e-06
4.2005e-06
3.42223e-06
2.4859e-06
1.70541e-06
1.17911e-06
8.84296e-07
7.6126e-07
7.43712e-07
7.6998e-07
7.96973e-07
8.09012e-07
8.09812e-07
8.07355e-07
8.05856e-07
8.05783e-07
8.06319e-07
8.0688e-07
8.07333e-07
8.07736e-07
8.08149e-07
8.08589e-07
8.09054e-07
8.09539e-07
8.10045e-07
8.10573e-07
8.11124e-07
8.11699e-07
8.12301e-07
8.12929e-07
8.13586e-07
8.14272e-07
8.14989e-07
8.15738e-07
8.1652e-07
8.17336e-07
8.18187e-07
8.19076e-07
8.20002e-07
8.20966e-07
8.2197e-07
8.23016e-07
8.24103e-07
8.25233e-07
8.26406e-07
8.27624e-07
8.28886e-07
8.30194e-07
8.31548e-07
8.32949e-07
8.34394e-07
8.35869e-07
8.37336e-07
8.38743e-07
8.40034e-07
8.41169e-07
8.4214e-07
8.42954e-07
8.43628e-07
8.44189e-07
8.44659e-07
8.45055e-07
8.45388e-07
8.45671e-07
8.4591e-07
8.46111e-07
8.4629e-07
8.46459e-07
8.46634e-07
8.46847e-07
8.47138e-07
8.47578e-07
8.48281e-07
8.49421e-07
8.51331e-07
8.5446e-07
8.60168e-07
8.68847e-07
8.91418e-07
9.03792e-07
1.0718e-06
4.88694e-07
2.10814e-07
9.84256e-08
9.1312e-07
5.57156e-08
2.72914e-07
1.56305e-11
1.17667e-10
2.25493e-11
1.4559e-12
5.54273e-13
5.51041e-12
2.73649e-10
6.91014e-09
4.66592e-08
1.1586e-09
1.44733e-08
2.93535e-07
1.32384e-06
2.44139e-06
2.5824e-06
2.16599e-06
1.64304e-06
1.20915e-06
9.26086e-07
7.86209e-07
7.4971e-07
7.66029e-07
7.92198e-07
8.07057e-07
8.09967e-07
8.08006e-07
8.06222e-07
8.05844e-07
8.06271e-07
8.06833e-07
8.07298e-07
8.07695e-07
8.08088e-07
8.08507e-07
8.0895e-07
8.09414e-07
8.09898e-07
8.10402e-07
8.10928e-07
8.11478e-07
8.12053e-07
8.12653e-07
8.1328e-07
8.13936e-07
8.14621e-07
8.15337e-07
8.16084e-07
8.16864e-07
8.17679e-07
8.18528e-07
8.19415e-07
8.20338e-07
8.21301e-07
8.22303e-07
8.23346e-07
8.24431e-07
8.25558e-07
8.26728e-07
8.27942e-07
8.29201e-07
8.30505e-07
8.31854e-07
8.33241e-07
8.34642e-07
8.36015e-07
8.37304e-07
8.38467e-07
8.39482e-07
8.40347e-07
8.41078e-07
8.41695e-07
8.4222e-07
8.42671e-07
8.43061e-07
8.43402e-07
8.43704e-07
8.43974e-07
8.44218e-07
8.44447e-07
8.44674e-07
8.44916e-07
8.45207e-07
8.45592e-07
8.46145e-07
8.46984e-07
8.48295e-07
8.50415e-07
8.5386e-07
8.599e-07
8.69537e-07
8.92061e-07
9.09854e-07
1.02794e-06
4.32418e-07
1.87605e-07
1.00864e-07
9.13778e-07
2.10013e-06
3.73287e-07
8.26385e-11
3.45205e-12
1.51175e-11
2.57473e-12
1.88317e-13
1.06752e-12
7.54724e-11
3.33595e-10
1.7958e-10
4.09268e-10
3.58223e-09
4.15565e-08
3.79662e-07
1.53595e-06
2.29722e-06
2.0084e-06
1.55606e-06
1.18842e-06
9.39499e-07
8.04824e-07
7.59939e-07
7.67335e-07
7.89748e-07
8.05034e-07
8.09413e-07
8.08226e-07
8.06479e-07
8.05902e-07
8.06196e-07
8.06724e-07
8.07191e-07
8.07584e-07
8.07961e-07
8.08358e-07
8.08779e-07
8.09221e-07
8.09683e-07
8.10164e-07
8.10665e-07
8.1119e-07
8.11737e-07
8.12309e-07
8.12907e-07
8.13532e-07
8.14184e-07
8.14866e-07
8.15579e-07
8.16323e-07
8.171e-07
8.17912e-07
8.18758e-07
8.1964e-07
8.2056e-07
8.21519e-07
8.22517e-07
8.23556e-07
8.24637e-07
8.2576e-07
8.26927e-07
8.28136e-07
8.2939e-07
8.30684e-07
8.32007e-07
8.33325e-07
8.34593e-07
8.35764e-07
8.36806e-07
8.3771e-07
8.38485e-07
8.39147e-07
8.39716e-07
8.40211e-07
8.4065e-07
8.4104e-07
8.41393e-07
8.41716e-07
8.42014e-07
8.42297e-07
8.42573e-07
8.42855e-07
8.43165e-07
8.43535e-07
8.44015e-07
8.44682e-07
8.45658e-07
8.47139e-07
8.49475e-07
8.53233e-07
8.59644e-07
8.70053e-07
8.92843e-07
9.14577e-07
9.91506e-07
3.68675e-07
2.0903e-07
1.18259e-07
9.13035e-07
2.00859e-07
8.84481e-09
5.46875e-09
1.54807e-10
1.54696e-11
3.70968e-13
1.11272e-13
7.84757e-13
6.65864e-13
4.77525e-12
1.10803e-11
4.55e-11
4.57819e-10
6.78735e-09
1.08909e-07
9.04053e-07
3.06252e-06
2.47886e-06
1.63647e-06
1.18547e-06
9.38307e-07
8.12435e-07
7.67647e-07
7.70287e-07
7.88942e-07
8.03371e-07
8.08509e-07
8.08085e-07
8.06561e-07
8.05877e-07
8.06033e-07
8.06503e-07
8.06961e-07
8.0735e-07
8.07715e-07
8.08091e-07
8.08491e-07
8.08912e-07
8.09351e-07
8.09809e-07
8.10286e-07
8.10785e-07
8.11306e-07
8.1185e-07
8.12419e-07
8.13014e-07
8.13635e-07
8.14284e-07
8.14963e-07
8.15672e-07
8.16412e-07
8.17185e-07
8.17992e-07
8.18834e-07
8.19713e-07
8.20629e-07
8.21584e-07
8.22578e-07
8.23614e-07
8.24692e-07
8.25811e-07
8.26973e-07
8.28178e-07
8.29417e-07
8.3067e-07
8.319e-07
8.33061e-07
8.34116e-07
8.35049e-07
8.35858e-07
8.36556e-07
8.37162e-07
8.37694e-07
8.38167e-07
8.38598e-07
8.38991e-07
8.39357e-07
8.39702e-07
8.40033e-07
8.40355e-07
8.4068e-07
8.41022e-07
8.41402e-07
8.41857e-07
8.42436e-07
8.4322e-07
8.44334e-07
8.45987e-07
8.48538e-07
8.52591e-07
8.59385e-07
8.70431e-07
8.93684e-07
9.17424e-07
1.0369e-06
3.61218e-07
2.45975e-07
1.52728e-07
9.12779e-07
5.30371e-07
5.78278e-07
2.76781e-08
2.02663e-09
5.93971e-11
2.86139e-12
3.67396e-14
3.03804e-15
6.10094e-13
2.75248e-12
3.03343e-12
6.10396e-12
1.07971e-10
2.66898e-10
2.40765e-08
2.38176e-07
1.54796e-06
2.94412e-06
1.88953e-06
1.25779e-06
9.62431e-07
8.2483e-07
7.74276e-07
7.71771e-07
7.87345e-07
8.0131e-07
8.07329e-07
8.07741e-07
8.065e-07
8.05727e-07
8.0573e-07
8.0612e-07
8.06563e-07
8.06952e-07
8.07308e-07
8.07668e-07
8.08047e-07
8.08447e-07
8.08866e-07
8.09302e-07
8.09757e-07
8.10233e-07
8.10729e-07
8.11248e-07
8.1179e-07
8.12356e-07
8.12949e-07
8.13567e-07
8.14215e-07
8.14891e-07
8.15597e-07
8.16336e-07
8.17107e-07
8.17912e-07
8.18752e-07
8.19629e-07
8.20544e-07
8.21498e-07
8.22493e-07
8.23529e-07
8.24607e-07
8.25726e-07
8.26885e-07
8.28069e-07
8.29252e-07
8.30393e-07
8.31454e-07
8.32407e-07
8.33247e-07
8.33978e-07
8.34615e-07
8.35178e-07
8.35683e-07
8.36143e-07
8.3657e-07
8.36972e-07
8.37354e-07
8.37724e-07
8.38089e-07
8.38455e-07
8.38832e-07
8.39237e-07
8.39693e-07
8.40233e-07
8.4091e-07
8.41807e-07
8.43056e-07
8.44875e-07
8.47639e-07
8.51981e-07
8.59144e-07
8.70738e-07
8.94453e-07
9.19687e-07
1.03633e-06
3.67726e-07
2.74563e-07
1.99187e-07
9.12877e-07
4.08354e-06
1.90085e-07
1.9066e-08
2.47755e-09
1.66615e-10
6.83457e-12
5.27489e-13
3.45977e-14
1.6047e-13
4.93596e-13
1.16605e-12
3.6307e-12
1.18903e-12
4.74234e-10
5.01904e-09
5.64725e-08
3.36978e-07
1.2414e-06
1.74602e-06
1.35711e-06
1.03255e-06
8.61612e-07
7.88488e-07
7.72719e-07
7.83373e-07
7.97774e-07
8.05705e-07
8.07352e-07
8.06416e-07
8.05499e-07
8.05317e-07
8.05618e-07
8.06045e-07
8.06439e-07
8.06792e-07
8.07139e-07
8.07502e-07
8.07885e-07
8.08286e-07
8.08706e-07
8.09143e-07
8.096e-07
8.10076e-07
8.10574e-07
8.11095e-07
8.11639e-07
8.12208e-07
8.12803e-07
8.13424e-07
8.14074e-07
8.14754e-07
8.15464e-07
8.16207e-07
8.16983e-07
8.17793e-07
8.18639e-07
8.19522e-07
8.20443e-07
8.21405e-07
8.22408e-07
8.23453e-07
8.24539e-07
8.25659e-07
8.26796e-07
8.27917e-07
8.28984e-07
8.29965e-07
8.3084e-07
8.3161e-07
8.32284e-07
8.32879e-07
8.33411e-07
8.33895e-07
8.34346e-07
8.34772e-07
8.35182e-07
8.35579e-07
8.35973e-07
8.36368e-07
8.36775e-07
8.37202e-07
8.37664e-07
8.38186e-07
8.38802e-07
8.39564e-07
8.4056e-07
8.41925e-07
8.43891e-07
8.46849e-07
8.51451e-07
8.58942e-07
8.7097e-07
8.94919e-07
9.2156e-07
1.06048e-06
3.91967e-07
2.97045e-07
2.46547e-07
9.1279e-07
5.14015e-07
5.82859e-06
9.00591e-09
8.27037e-08
4.3128e-09
1.77921e-10
1.08611e-13
4.88815e-14
8.92086e-14
4.14009e-13
1.93079e-12
3.93359e-12
1.25037e-11
1.41679e-10
2.78512e-09
3.22546e-08
1.72869e-07
6.32327e-07
1.33738e-06
1.41229e-06
1.12603e-06
9.11058e-07
8.03918e-07
7.7104e-07
7.77438e-07
7.93977e-07
8.04682e-07
8.07514e-07
8.06598e-07
8.05402e-07
8.05045e-07
8.05301e-07
8.05736e-07
8.06139e-07
8.06491e-07
8.06831e-07
8.07184e-07
8.07558e-07
8.0795e-07
8.0836e-07
8.08788e-07
8.09234e-07
8.097e-07
8.10186e-07
8.10695e-07
8.11227e-07
8.11783e-07
8.12364e-07
8.12972e-07
8.13607e-07
8.14272e-07
8.14966e-07
8.15692e-07
8.16451e-07
8.17243e-07
8.18071e-07
8.18935e-07
8.19837e-07
8.20778e-07
8.2176e-07
8.22784e-07
8.23849e-07
8.24947e-07
8.26057e-07
8.27146e-07
8.28174e-07
8.29115e-07
8.29951e-07
8.30686e-07
8.31329e-07
8.31898e-07
8.32409e-07
8.32875e-07
8.33314e-07
8.3373e-07
8.34136e-07
8.34534e-07
8.34933e-07
8.35337e-07
8.35759e-07
8.36205e-07
8.36691e-07
8.37239e-07
8.37885e-07
8.38681e-07
8.39723e-07
8.4115e-07
8.43204e-07
8.46283e-07
8.51058e-07
8.58779e-07
8.71105e-07
8.94998e-07
9.22983e-07
1.05129e-06
4.37202e-07
3.20211e-07
2.83702e-07
9.12831e-07
8.22576e-08
3.00732e-07
4.16564e-14
1.68209e-08
8.79204e-09
2.27507e-09
2.08534e-10
9.8972e-13
1.01101e-12
3.02889e-12
3.47685e-12
7.86645e-12
1.40045e-11
6.31219e-10
5.82472e-09
4.59111e-08
2.00764e-07
6.14079e-07
1.16098e-06
1.26382e-06
1.0648e-06
8.89186e-07
7.98383e-07
7.72912e-07
7.81499e-07
7.96993e-07
8.05824e-07
8.07521e-07
8.06376e-07
8.05372e-07
8.05217e-07
8.05554e-07
8.05988e-07
8.06371e-07
8.06713e-07
8.07053e-07
8.0741e-07
8.07788e-07
8.08184e-07
8.08597e-07
8.09028e-07
8.09478e-07
8.09947e-07
8.10438e-07
8.10951e-07
8.11488e-07
8.12049e-07
8.12636e-07
8.13249e-07
8.1389e-07
8.14561e-07
8.15262e-07
8.15994e-07
8.1676e-07
8.17559e-07
8.18394e-07
8.19265e-07
8.20174e-07
8.21123e-07
8.22112e-07
8.23142e-07
8.24215e-07
8.25322e-07
8.26448e-07
8.2756e-07
8.28619e-07
8.2959e-07
8.30456e-07
8.31212e-07
8.31868e-07
8.3244e-07
8.32945e-07
8.33399e-07
8.33815e-07
8.34205e-07
8.34575e-07
8.34935e-07
8.35294e-07
8.35661e-07
8.36044e-07
8.36447e-07
8.36883e-07
8.37375e-07
8.37959e-07
8.38694e-07
8.39673e-07
8.41046e-07
8.43067e-07
8.46143e-07
8.50942e-07
8.58695e-07
8.71112e-07
8.94418e-07
9.23701e-07
1.0397e-06
4.77903e-07
3.48005e-07
3.03179e-07
9.12733e-07
2.47972e-06
2.03235e-06
1.94993e-05
3.39993e-10
4.11222e-09
4.93515e-11
3.36437e-12
8.18365e-14
1.75791e-14
6.08957e-13
7.42134e-13
1.62505e-11
1.01662e-10
9.63585e-10
1.8857e-08
1.11339e-07
3.98874e-07
8.76281e-07
1.12733e-06
1.06076e-06
9.25943e-07
8.31283e-07
7.88659e-07
7.82823e-07
7.92687e-07
8.02433e-07
8.066e-07
8.06801e-07
8.05962e-07
8.05553e-07
8.05698e-07
8.06079e-07
8.06474e-07
8.06831e-07
8.07173e-07
8.07526e-07
8.07897e-07
8.08287e-07
8.08695e-07
8.0912e-07
8.09564e-07
8.10027e-07
8.10511e-07
8.11018e-07
8.11547e-07
8.12101e-07
8.1268e-07
8.13286e-07
8.13919e-07
8.14581e-07
8.15274e-07
8.15997e-07
8.16754e-07
8.17544e-07
8.18369e-07
8.19231e-07
8.2013e-07
8.21069e-07
8.22047e-07
8.23066e-07
8.24127e-07
8.2523e-07
8.26372e-07
8.27544e-07
8.28719e-07
8.29858e-07
8.3092e-07
8.31876e-07
8.32713e-07
8.33435e-07
8.34057e-07
8.34596e-07
8.35069e-07
8.3549e-07
8.35871e-07
8.36222e-07
8.36548e-07
8.36862e-07
8.37172e-07
8.37484e-07
8.37803e-07
8.38142e-07
8.38522e-07
8.38985e-07
8.39597e-07
8.40453e-07
8.417e-07
8.43583e-07
8.46509e-07
8.51144e-07
8.58657e-07
8.70841e-07
8.92983e-07
9.23389e-07
1.02421e-06
5.49575e-07
3.83179e-07
3.10008e-07
9.12767e-07
4.94522e-06
3.43973e-06
1.64332e-06
1.10456e-10
1.82489e-10
1.32613e-11
7.24294e-13
5.56877e-14
2.45893e-14
2.69645e-13
5.05446e-12
5.57958e-11
4.99171e-10
6.0603e-09
6.64773e-08
3.42537e-07
8.64867e-07
1.07775e-06
1.00646e-06
9.04848e-07
8.35192e-07
7.99999e-07
7.90408e-07
7.94316e-07
8.01043e-07
8.05176e-07
8.06307e-07
8.0606e-07
8.05751e-07
8.05799e-07
8.06101e-07
8.06476e-07
8.06841e-07
8.07191e-07
8.07545e-07
8.07916e-07
8.08305e-07
8.08711e-07
8.09135e-07
8.09578e-07
8.10041e-07
8.10524e-07
8.11029e-07
8.11557e-07
8.12109e-07
8.12687e-07
8.13291e-07
8.13922e-07
8.14583e-07
8.15273e-07
8.15995e-07
8.16749e-07
8.17537e-07
8.1836e-07
8.1922e-07
8.20117e-07
8.21053e-07
8.22029e-07
8.23046e-07
8.24105e-07
8.25207e-07
8.26352e-07
8.27539e-07
8.28766e-07
8.30013e-07
8.31247e-07
8.32422e-07
8.33497e-07
8.34451e-07
8.35275e-07
8.35981e-07
8.36585e-07
8.37104e-07
8.37557e-07
8.37956e-07
8.38311e-07
8.38628e-07
8.38914e-07
8.39178e-07
8.39427e-07
8.39667e-07
8.39911e-07
8.40181e-07
8.40519e-07
8.4099e-07
8.41694e-07
8.42777e-07
8.4448e-07
8.47193e-07
8.51557e-07
8.58699e-07
8.70404e-07
8.91109e-07
9.22214e-07
1.00636e-06
6.6263e-07
4.22012e-07
3.15478e-07
9.12725e-07
7.0341e-07
1.29911e-06
3.71394e-07
1.33957e-09
1.97944e-11
2.44869e-12
6.44514e-14
1.87504e-14
8.77758e-14
1.42037e-12
1.05763e-11
9.67391e-11
5.06367e-10
2.87415e-08
2.84974e-07
1.10705e-06
1.2486e-06
1.03183e-06
8.94791e-07
8.26439e-07
7.98302e-07
7.92432e-07
7.96243e-07
8.01516e-07
8.04736e-07
8.05783e-07
8.05773e-07
8.05628e-07
8.05703e-07
8.05976e-07
8.0633e-07
8.06692e-07
8.07047e-07
8.07406e-07
8.07779e-07
8.08169e-07
8.08577e-07
8.09002e-07
8.09446e-07
8.0991e-07
8.10394e-07