/*--------------------------------*- C++ -*----------------------------------*\
  =========                 |
  \\      /  F ield         | OpenFOAM: The Open Source CFD Toolbox
   \\    /   O peration     | Website:  https://openfoam.org
    \\  /    A nd           | Version:  9
     \\/     M anipulation  |
\*---------------------------------------------------------------------------*/
FoamFile
{
    format      ascii;
    class       volScalarField;
    location    "2250";
    object      omega;
}
// * * * * * * * * * * * * * * * * * * * * * * * * * * * * * * * * * * * * * //

dimensions      [0 0 -1 0 0 0 0];

internalField   nonuniform List<scalar> 
13446
(
36.011
36.5672
0.477542
37.0929
1.40544
0.122545
0.00318724
0.00124707
37.596
2.16541
0.0887002
0.0102333
0.00135726
6.25252e-05
38.0715
2.81863
0.210071
0.0197001
0.00289508
0.00131202
0.00804663
38.5244
3.53727
0.322922
0.00484477
0.00567308
0.018805
0.057695
0.0701486
0.149486
0.414246
0.815269
1.18622
1.42746
1.55242
1.62252
1.68764
1.76816
1.86393
1.9689
2.07923
2.19434
2.31506
2.44223
2.57635
2.71778
2.86685
3.02396
3.18956
3.36408
3.54801
3.7416
38.9467
0.330396
0.00505916
0.00638951
0.0144866
0.228436
0.455244
0.506583
0.422631
0.430287
0.674009
1.04056
1.34112
1.51065
1.59433
1.65575
1.72896
1.81943
1.92131
2.02939
2.14209
2.26003
2.38411
2.51496
2.65295
2.79842
2.95174
3.11332
3.28362
3.46307
3.65227
3.85107
4.06053
32.3648
33.8969
35.5222
37.2353
39.0339
40.9242
42.9085
44.9847
47.1529
49.4137
51.777
54.252
56.8462
59.5748
62.4591
65.526
68.8247
72.3797
76.2819
80.5003
85.3841
90.9076
97.9876
109.41
123.786
142.212
39.3476
0.82035
0.0966501
0.0443533
0.128053
0.725885
1.27088
1.34149
0.974234
0.56315
0.514467
0.833951
1.21562
1.45758
1.56716
1.62638
1.69056
1.77426
1.87243
1.97816
2.08853
2.2037
2.32464
2.45215
2.58662
2.7284
2.87783
3.03532
3.2013
3.37621
3.56051
3.75477
3.95958
4.1744
30.1597
31.5938
33.111
34.7098
36.388
38.1502
40.0042
41.9493
43.9815
46.1017
48.314
50.6277
53.0504
55.5902
58.2625
61.0851
64.0877
67.3215
70.8124
74.6636
78.8428
83.7294
89.2255
96.4678
107.919
123.92
145.757
39.7233
1.63786
0.153674
0.542647
0.946631
1.35188
2.11394
2.25982
1.61356
0.757475
0.361882
0.596431
1.06068
1.3919
1.53899
1.59939
1.65376
1.72919
1.82284
1.92607
2.03421
2.14669
2.2645
2.3886
2.51951
2.65756
2.80308
2.95642
3.11802
3.28834
3.46781
3.65691
3.85609
4.06614
4.28682
4.51915
28.0636
29.4084
30.8241
32.3127
33.8756
35.5179
37.2456
39.0637
40.966
42.9503
45.0223
47.1854
49.4491
51.8174
54.3
56.9126
59.6749
62.6121
65.7756
69.1962
72.9877
77.1203
81.9977
87.4554
94.8531
106.331
123.635
150.082
40.0971
3.11714
0.385068
4.05663
3.17213
1.5752
2.30607
2.76624
2.03221
0.896362
0.259534
0.411672
0.919922
1.31927
1.50381
1.5708
1.61787
1.68469
1.77283
1.87309
1.979
2.08889
2.20361
2.32428
2.45157
2.58583
2.72737
2.87653
3.03373
3.19938
3.37394
3.55786
3.75166
3.9558
4.1709
4.39763
4.63535
19.5304
20.4983
21.5162
22.5829
23.6973
24.8588
26.0701
27.3346
28.6579
30.0439
31.4995
33.0277
34.6358
36.33
38.1068
39.9621
41.8995
43.9224
46.0374
48.2477
50.5627
52.9879
55.5389
58.2365
61.1068
64.1974
67.5443
71.2659
75.3369
80.2012
85.6037
93.1632
104.704
123.039
155.683
40.3892
1.03927
6.42138
12.8478
5.48718
0.939044
1.47514
2.42644
1.94779
0.882344
0.256936
0.37681
0.853118
1.252
1.45357
1.53278
1.58051
1.64152
1.72355
1.81973
1.92295
2.03029
2.14203
2.25929
2.38292
2.51335
2.65087
2.79581
2.94854
3.1095
3.2791
3.45782
3.64611
3.84448
4.05345
4.2735
4.50547
4.74918
5.00545
18.0774
18.9837
19.9359
20.9329
21.9738
23.0597
24.1921
25.3739
26.6073
27.8981
29.2517
30.6741
32.1679
33.742
35.3976
37.1311
38.9403
40.8307
42.8043
44.8683
47.026
49.2843
51.6503
54.1415
56.7733
59.5774
62.5923
65.8566
69.5024
73.5017
78.3397
83.676
91.4073
103.026
122.411
162.063
39.4785
15.7472
70.7131
36.8584
6.3763
0.631004
0.426368
1.27938
1.23933
0.69606
0.384164
0.529621
0.888161
1.19677
1.37939
1.47461
1.53695
1.60023
1.67701
1.76715
1.86621
1.97071
2.07967
2.1937
2.31368
2.44021
2.57367
2.71434
2.86258
3.0188
3.18341
3.35687
3.53962
3.73215
3.93497
4.14862
4.37359
4.61056
4.86026
5.12247
5.39808
13.0181
13.6894
14.3894
15.1236
15.8953
16.7052
17.5536
18.4422
19.371
20.3403
21.3526
22.4099
23.5131
24.6646
25.8678
27.1275
28.4487
29.8368
31.2983
32.8367
34.451
36.1386
37.9013
39.7436
41.6693
43.6827
45.7849
47.9849
50.2909
52.7202
55.2863
58.0185
60.957
64.1383
67.702
71.6148
76.4209
81.6855
89.5988
101.311
121.894
169.707
35.1694
50.0628
361.258
90.9703
9.77755
0.851073
0.636918
0.420884
0.359544
0.440318
0.603773
0.807442
0.994189
1.14438
1.27157
1.38436
1.48006
1.5603
1.63578
1.71747
1.80944
1.90997
2.01631
2.12749
2.24397
2.36658
2.49589
2.63225
2.77598
2.92743
3.08701
3.25517
3.43234
3.619
3.81563
4.02274
4.24089
4.47062
4.71248
4.96719
5.23553
5.51722
5.81376
6.12616
6.45432
12.625
13.275
13.9558
14.6715
15.4232
16.211
17.0356
17.898
18.7996
19.7417
20.7264
21.7548
22.8283
23.9492
25.1207
26.3488
27.6366
28.9909
30.418
31.9181
33.4893
35.1317
36.8486
38.6424
40.5184
42.478
44.5252
46.6673
48.9137
51.2773
53.7769
56.4369
59.2959
62.3932
65.8671
69.6922
74.4575
79.6293
87.7601
99.5465
121.551
179.687
112.723
102.499
1912.76
194.102
19.8257
11.0359
3.66562
0.517464
0.00838575
0.324996
0.834577
1.09503
1.11171
1.07825
1.1231
1.25228
1.40134
1.51869
1.6012
1.67308
1.75401
1.84829
1.95174
2.06052
2.17383
2.29257
2.41768
2.54967
2.68884
2.83551
2.99004
3.15287
3.32443
3.50518
3.69559
3.89616
4.10741
4.32987
4.56415
4.8108
5.07042
5.34378
5.63154
5.9343
6.25297
6.5874
6.93851
12.2261
12.8564
13.5192
14.2156
14.9458
15.7103
16.5103
17.3474
18.2229
19.1381
20.0947
21.0936
22.1368
23.2266
24.3669
25.5621
26.8168
28.1385
29.5281
30.9876
32.515
34.1123
35.782
37.5278
39.3532
41.2585
43.2484
45.3318
47.5162
49.8167
52.2472
54.8334
57.6117
60.6199
64.0066
67.7294
72.4559
77.5246
85.9302
97.7155
121.421
190.099
432.654
1614.94
15021
920.568
85.524
37.9367
8.80142
0.464549
0.0919225
0.419138
1.07519
1.33354
1.2018
0.993689
0.941762
1.08063
1.29544
1.46857
1.56993
1.63437
1.70162
1.78681
1.88621
1.99268
2.1032
2.21827
2.33918
2.46674
2.60131
2.74317
2.89264
3.05013
3.21606
3.39088
3.57505
3.76904
3.97337
4.18855
4.41515
4.65375
4.90494
5.16933
5.4476
5.74044
6.04851
6.37267
6.71391
7.07192
7.44831
7.84428
8.26076
8.69841
9.15815
9.64095
10.1479
10.6799
11.2383
11.824
12.4388
13.0837
13.7592
14.4665
15.2073
15.9827
16.7943
17.6433
18.531
19.4589
20.4283
21.441
22.4995
23.6076
24.7698
25.9912
27.2774
28.6294
30.0471
31.5306
33.0823
34.7052
36.4019
38.1738
40.0243
41.9571
43.9809
46.1027
48.3371
50.698
53.2066
55.9049
58.8237
62.1207
65.7402
70.4302
75.3824
84.1259
95.8945
121.224
202.455
16232.9
199258
2.43505e+06
16232
828.798
83.7427
0.0920188
0.368333
0.107145
0.673537
1.37548
1.5302
1.25597
0.906235
0.762369
0.896669
1.1679
1.40036
1.53089
1.59634
1.65277
1.72769
1.82106
1.92423
2.03195
2.14361
2.26048
2.38362
2.51356
2.65058
2.79497
2.94711
3.1074
3.27627
3.45418
3.64158
3.83898
4.04687
4.26579
4.49629
4.73897
4.99443
5.26332
5.54629
5.84403
6.1573
6.48673
6.83328
7.19776
7.58089
7.98358
8.40668
8.85117
9.31797
9.80821
10.3228
10.863
11.4298
12.0241
12.6472
13.3004
13.9848
14.7019
15.4527
16.2387
17.0608
17.9208
18.8197
19.7591
20.741
21.7678
22.8438
23.9732
25.161
26.4104
27.723
29.0981
30.5377
32.0442
33.619
35.2646
36.9829
38.7768
40.6527
42.616
44.6757
46.8421
49.1315
51.5631
54.1794
57.0101
60.2153
63.7326
68.3917
73.2164
82.4014
94.0982
121.045
216.908
2806.21
34349.4
4471.18
612.033
165.827
45.9424
4.95939
0.336462
0.000981973
1.03772
1.69988
1.66936
1.27301
0.839077
0.633699
0.746833
1.03698
1.30533
1.46623
1.54684
1.60445
1.67304
1.75888
1.85636
1.96014
2.0684
2.18153
2.30042
2.42575
2.5579
2.6972
2.84398
2.99863
3.16157
3.33321
3.51403
3.70448
3.90506
4.11629
4.33871
4.57288
4.8194
5.07888
5.35196
5.63931
5.94163
6.25966
6.59414
6.94585
7.31559
7.70426
8.11275
8.54194
8.99278
9.46623
9.96332
10.4851
11.0325
11.6068
12.2091
12.8406
13.5023
14.1955
14.9215
15.6814
16.4768
17.3086
18.1785
19.0877
20.0386
21.0341
22.0779
23.1741
24.3264
25.5386
26.8104
28.1427
29.5376
30.9985
32.5239
34.1179
35.7823
37.5202
39.3375
41.2393
43.2347
45.3336
47.55
49.9036
52.4354
55.1788
58.295
61.7183
66.3547
71.0479
80.7741
92.4251
120.733
234.955
503.498
161.941
886.265
133.231
30.1182
8.88144
3.49692
0.814907
0.439494
1.32579
1.83428
1.70004
1.24805
0.789121
0.568784
0.65603
0.917222
1.17779
1.35861
1.47018
1.54944
1.62288
1.70237
1.79114
1.88848
1.99259
2.10221
2.2172
2.33804
2.46532
2.5995
2.74093
2.88995
3.04695
3.21234
3.38657
3.57009
3.76338
3.96694
4.18128
4.40696
4.64454
4.89462
5.15781
5.43479
5.7262
6.03277
6.35519
6.6943
7.05083
7.42562
7.81953
8.23344
8.66823
9.12489
9.60441
10.1077
10.636
11.1902
11.7714
12.3809
13.0196
13.6888
14.39
15.1238
15.8922
16.6958
17.5365
18.4155
19.3351
20.2986
21.3096
22.3714
23.488
24.662
25.8929
27.1828
28.533
29.9457
31.4214
32.9629
34.5725
36.2541
38.0123
39.8532
41.7829
43.8126
45.9551
48.2327
50.6826
53.343
56.3707
59.7063
64.3236
68.8988
79.3068
90.9273
120.596
258.165
32.8116
31.6274
148.549
51.605
9.89628
0.60316
0.298262
0.310208
1.04889
1.71375
1.89025
1.61953
1.12801
0.691852
0.509869
0.588072
0.794572
1.01258
1.20086
1.35638
1.47943
1.57369
1.65209
1.73051
1.81833
1.91657
2.02246
2.13389
2.25052
2.37302
2.50207
2.63813
2.78153
2.93262
3.09179
3.25945
3.43607
3.62208
3.81799
4.02427
4.24148
4.47015
4.71085
4.9642
5.23081
5.51134
5.80649
6.1169
6.4434
6.78666
7.14756
7.52689
7.92552
8.3443
8.78422
9.24609
9.73109
10.24
10.7741
11.3343
11.9217
12.5375
13.1828
13.8589
14.5667
15.3077
16.083
16.8943
17.7428
18.6312
19.5627
20.5407
21.5682
22.6489
23.7837
24.9728
26.2195
27.5241
28.8885
30.3137
31.8026
33.3583
34.9829
36.6817
38.4602
40.3247
42.2856
44.3555
46.5566
48.9271
51.5066
54.4499
57.7136
62.3045
66.7976
78.0093
89.6231
121.271
292.539
42.4375
8.02219
22.5432
17.4599
7.15165
1.53131
0.0521449
0.628473
1.49633
1.92807
1.85087
1.41582
0.87132
0.486177
0.378078
0.470374
0.631162
0.806625
1.00292
1.21023
1.39094
1.51958
1.60489
1.67462
1.75105
1.84131
1.94255
2.05046
2.16321
2.28113
2.4051
2.53578
2.67355
2.81876
2.97173
3.13287
3.30261
3.48139
3.66967
3.86794
4.07671
4.2965
4.52787
4.77141
5.02769
5.2974
5.58113
5.87958
6.19352
6.52359
6.87065
7.23546
7.61882
8.02163
8.44475
8.88917
9.35576
9.84549
10.3594
10.8985
11.4639
12.0567
12.678
13.329
14.0106
14.7244
15.4713
16.253
17.0711
17.9281
18.8274
19.7717
20.7647
21.8087
22.9036
24.0519
25.2548
26.5131
27.8289
29.2035
30.6399
32.1401
33.7083
35.3476
37.0643
38.8632
40.7556
42.7552
44.8838
47.1784
49.6819
52.5431
55.7493
60.2853
64.7922
76.7948
88.5747
123.658
348.762
42.6637
4.06274
3.63615
3.12943
2.5686
1.30981
1.18073
1.80649
2.21708
2.13406
1.67208
1.04586
0.498641
0.208419
0.179461
0.28509
0.419987
0.579381
0.796027
1.05349
1.28904
1.45547
1.55471
1.62081
1.68692
1.76791
1.86316
1.96709
2.07611
2.18968
2.30868
2.43402
2.5662
2.70554
2.85235
3.007
3.1699
3.34148
3.52218
3.71247
3.91285
4.12382
4.3459
4.57968
4.82569
5.0846
5.357
5.64353
5.94494
6.26188
6.59512
6.94542
7.31363
7.70052
8.10693
8.53384
8.98209
9.45262
9.94649
10.4646
11.008
11.5777
12.175
12.8009
13.4563
14.1428
14.8614
15.6136
16.4015
17.2275
18.0949
19.0061
19.9641
20.97
22.0253
23.1318
24.2903
25.5024
26.7701
28.0938
29.4781
30.9232
32.4352
34.0158
35.6715
37.4066
39.2333
41.1642
43.2229
45.4452
47.8781
50.6615
53.8273
58.2558
62.9382
75.3993
87.8573
128.964
442.25
42.8139
4.3385
0.187383
0.123998
0.943417
2.05833
2.82091
3.00267
2.68135
2.03492
1.2551
0.565192
0.155766
0.0117904
0.0314166
0.118809
0.23331
0.395277
0.631713
0.917835
1.18552
1.38013
1.49591
1.56482
1.62455
1.69676
1.78502
1.88418
1.98929
2.09867
2.21288
2.33293
2.45953
2.59303
2.73372
2.88192
3.03803
3.20246
3.37563
3.558
3.75004
3.95223
4.16508
4.38914
4.62495
4.87312
5.13424
5.40891
5.69786
6.00173
6.32124
6.65713
7.0102
7.3812
7.77097
8.18044
8.61039
9.06175
9.53553
10.0327
10.5542
11.1009
11.6743
12.275
12.9044
13.5636
14.2538
14.9767
15.7345
16.5299
17.3652
18.2434
19.1658
20.1339
21.1499
22.2145
23.3291
24.4951
25.7148
26.9894
28.3213
29.7139
31.1699
32.6922
34.2879
35.9619
37.7257
39.5931
41.586
43.7417
46.1083
48.8127
51.9498
56.2132
61.2665
73.319
87.9139
135.376
580.806
42.9177
1.40851
0.261754
1.3281
3.48472
4.47662
4.24317
3.39935
2.37021
1.38039
0.598026
0.134072
0.0182993
0.0126219
0.028486
0.073723
0.166636
0.324569
0.553793
0.828674
1.09376
1.29826
1.42754
1.50357
1.56157
1.6271
1.70837
1.80215
1.90299
2.00816
2.11767
2.23254
2.35361
2.4813
2.61591
2.75771
2.90708
3.0644
3.2301
3.4046
3.58835
3.78183
3.98551
4.19992
4.42559
4.66309
4.913
5.17588
5.45246
5.74332
6.04918
6.37072
6.70874
7.06399
7.43718
7.82925
8.24098
8.6733
9.12711
9.60334
10.103
10.6269
11.1764
11.7522
12.3556
12.9877
13.6499
14.3439
15.072
15.8369
16.6405
17.4851
18.3725
19.3037
20.2801
21.3035
22.3747
23.4956
24.6684
25.8947
27.1762
28.517
29.9189
31.3862
32.9252
34.5408
36.2453
38.052
39.983
42.0749
44.3804
47.0117
50.1156
54.189
59.7021
70.2748
89.2434
136.071
669.579
43.0108
3.38581
0.0550485
4.27848
6.93752
6.50592
4.7909
2.95909
1.45945
0.478253
0.0460832
0.00459953
0.0959913
0.154557
0.153287
0.148788
0.200972
0.332585
0.534645
0.778818
1.02205
1.2212
1.35603
1.43794
1.49635
1.55748
1.63277
1.72117
1.81747
1.91829
2.02314
2.13291
2.24852
2.37046
2.49903
2.63449
2.77718
2.92746
3.08575
3.25245
3.428
3.61283
3.80743
4.01229
4.22791
4.45483
4.69362
4.94486
5.20915
5.48712
5.77945
6.08679
6.40989
6.74946
7.10625
7.48116
7.87484
8.28827
8.72231
9.17782
9.65582
10.1572
10.683
11.2343
11.8121
12.4176
13.0522
13.718
14.417
15.1516
15.9241
16.7355
17.5879
18.4825
19.4206
20.4039
21.4332
22.5107
23.6384
24.8178
26.0515
27.3423
28.6937
30.1083
31.5938
33.1556
34.805
36.5563
38.4304
40.463
42.709
45.2696
48.3286
52.2336
58.0703
66.8302
91.2095
121.103
628.915
43.0832
1.45723
0.653308
6.69973
8.32512
6.75305
4.63219
2.75776
1.34539
0.511519
0.217194
0.288829
0.474128
0.548215
0.451247
0.291352
0.210632
0.275468
0.463978
0.713268
0.959861
1.15857
1.29247
1.37354
1.42988
1.48716
1.55764
1.64123
1.73304
1.82946
1.92965
2.0344
2.14463
2.26091
2.38353
2.51274
2.64884
2.79219
2.94318
3.1022
3.26966
3.44599
3.63165
3.8271
4.03283
4.24935
4.47722
4.71697
4.96918
5.23451
5.51351
5.8069
6.11537
6.43957
6.78029
7.13827
7.51427
7.9092
8.32383
8.7591
9.2159
9.69525
10.198
10.7253
11.2781
11.8577
12.4657
13.1041
13.7751
14.4803
15.222
16.0014
16.82
17.6791
18.5802
19.5251
20.5142
21.5504
22.6351
23.7702
24.9588
26.2031
27.5066
28.8736
30.3099
31.8216
33.4201
35.1194
36.9407
38.9186
41.1067
43.6025
46.601
50.3878
56.2762
63.8715
91.1543
96.6429
578.583
43.1466
2.9369
0.14851
0.596637
2.3804
3.79885
4.11932
3.62597
2.73021
1.76052
1.08057
0.899021
1.01281
1.04745
0.841072
0.498418
0.219628
0.14612
0.294503
0.575355
0.869896
1.09813
1.23966
1.31692
1.36677
1.41817
1.48366
1.56282
1.65045
1.74264
1.83833
1.93821
2.04322
2.15399
2.27082
2.39396
2.52367
2.6603
2.80421
2.95578
3.1154
3.28349
3.46048
3.64682
3.84298
4.04945
4.26674
4.49541
4.73597
4.98906
5.25524
5.53517
5.82952
6.1389
6.46414
6.80588
7.16489
7.54201
7.93805
8.35385
8.79039
9.24851
9.72923
10.2337
10.7626
11.3178
11.9006
12.5129
13.157
13.8345
14.5469
15.2957
16.0824
16.9081
17.7741
18.6825
19.6341
20.6315
21.6758
22.7703
23.9163
25.1177
26.3776
27.6999
29.0915
30.5578
32.1109
33.7628
35.5354
37.4618
39.5953
42.0298
44.9588
48.6542
54.3672
61.6327
87.6534
84.2188
525.162
43.1916
4.0738
0.0325013
0.0554282
0.284162
1.06634
2.05189
2.58398
2.54734
2.20559
1.85331
1.64862
1.56032
1.4465
1.19893
0.823218
0.434009
0.184188
0.182386
0.408512
0.728993
1.00608
1.18005
1.26686
1.3128
1.35638
1.41483
1.48872
1.57226
1.66068
1.75237
1.84778
1.94793
2.05353
2.16495
2.28242
2.40617
2.53654
2.67385
2.81849
2.97083
3.13126
3.3002
3.47808
3.66536
3.8625
4.07
4.28838
4.51817
4.75996
5.01427
5.2818
5.56311
5.85889
6.16985
6.49665
6.84006
7.20086
7.57984
7.97783
8.39581
8.83455
9.29515
9.77855
10.2859
10.8187
11.3786
11.9674
12.5867
13.2387
13.924
14.6447
15.4017
16.1966
17.0304
17.9054
18.8224
19.7835
20.7912
21.8473
22.9549
24.1168
25.3367
26.6194
27.97
29.3953
30.9064
32.5153
34.242
36.1195
38.2
40.575
43.4329
47.0425
52.5055
59.6604
82.675
78.7738
468.621
43.2111
0.91722
0.0167586
0.00244468
0.058273
0.102036
0.437003
1.02188
1.49553
1.66946
1.63554
1.57125
1.55759
1.54701
1.44564
1.19933
0.842806
0.492753
0.298621
0.349164
0.591208
0.878876
1.09605
1.2154
1.27165
1.31079
1.36058
1.42745
1.50661
1.59201
1.68072
1.77266
1.86886
1.97019
2.07714
2.18994
2.30882
2.43405
2.56598
2.70495
2.85133
3.00551
3.16789
3.33889
3.51893
3.7085
3.90805
4.11809
4.33915
4.57178
4.81651
5.074
5.34478
5.62959
5.92903
6.24381
6.57466
6.92234
7.2876
7.67125
8.07426
8.49738
8.94175
9.40819
9.89803
10.4128
10.9539
11.5233
12.1223
12.7528
13.4156
14.1125
14.8442
15.6124
16.4185
17.2639
18.1508
19.0802
20.0555
21.0777
22.1512
23.2781
24.4623
25.7085
27.0222
28.4088
29.8796
31.4451
33.1268
34.9547
36.9814
39.2954
42.0747
45.5828
50.7766
57.7556
77.7097
76.084
414.562
43.2176
2.93476
0.0205931
0.00321411
0.00311213
0.00835728
0.0377822
0.141138
0.322163
0.543093
0.782803
1.03947
1.28297
1.44909
1.47927
1.34891
1.08303
0.759835
0.494875
0.408675
0.535252
0.78469
1.02414
1.17894
1.25462
1.29522
1.33862
1.39955
1.47563
1.55973
1.64742
1.73797
1.8324
1.93177
2.03667
2.14736
2.26403
2.38696
2.51645
2.65286
2.79656
2.94792
3.10734
3.27523
3.452
3.63813
3.83407
4.04031
4.25737
4.48578
4.72609
4.97889
5.24476
5.52437
5.8183
6.12728
6.45195
6.79311
7.15143
7.52769
7.92298
8.33799
8.77398
9.23175
9.7125
10.2176
10.7485
11.307
11.8942
12.5119
13.1609
13.8426
14.558
15.3083
16.0956
16.9205
17.7857
18.6923
19.6434
20.6404
21.6874
22.7861
23.9405
25.1545
26.4338
27.7825
29.2116
30.7299
32.3593
34.1273
36.0884
38.3275
41.0101
44.3925
49.3051
55.9944
73.3526
74.617
362.846
43.2107
1.62114
0.132916
0.00533039
0.00272268
0.00326695
0.00461007
0.0029385
0.0101826
0.0819415
0.295197
0.652367
1.0419
1.32501
1.42546
1.33737
1.11049
0.825467
0.590374
0.514988
0.628926
0.850906
1.06303
1.20062
1.2706
1.31316
1.36132
1.4265
1.50522
1.59082
1.67972
1.7717
1.86789
1.96924
2.07624
2.18911
2.30806
2.43337
2.56539
2.70446
2.85096
3.00526
3.16777
3.33891
3.51909
3.70881
3.90849
4.11868
4.33984
4.57256
4.81735
5.07484
5.3456
5.63024
5.92944
6.24386
6.57413
6.92105
7.28528
7.6676
8.06896
8.49013
8.93222
9.39596
9.88252
10.393
10.929
11.492
12.0834
12.7046
13.3563
14.0399
14.7559
15.5057
16.2904
17.1109
17.9694
18.8672
19.8081
20.7947
21.8296
22.9131
24.0477
25.2368
26.4844
27.7969
29.1808
30.6452
32.2084
33.9007
35.7758
37.9184
40.4806
43.7053
48.3179
54.6852
69.901
74.1734
313.639
43.1878
1.07164
0.0853367
0.000710732
0.0126034
0.0126972
0.162553
0.0348336
0.144847
0.372843
0.711931
1.07828
1.34898
1.44651
1.36159
1.13737
0.860909
0.631026
0.539347
0.616438
0.805513
1.00938
1.16094
1.25022
1.30392
1.3529
1.41376
1.48829
1.57174
1.6599
1.75139
1.84678
1.94702
2.05277
2.16434
2.28197
2.40591
2.53648
2.67404
2.81895
2.9716
3.13237
3.30169
3.47999
3.66772
3.86535
4.07338
4.29233
4.52271
4.76512
5.02008
5.28826
5.57024
5.86664
6.17822
6.50559
6.84948
7.21061
7.58977
7.98771
8.40518
8.8431
9.30229
9.78346
10.2879
10.8164
11.3708
11.9525
12.5631
13.2039
13.8758
14.58
15.3172
16.0881
16.8937
17.7344
18.6121
19.5274
20.4833
21.4821
22.525
23.6118
24.7439
25.9228
27.1539
28.4468
29.8083
31.2422
32.7616
34.3972
36.2009
38.2536
40.6921
43.7528
48.0606
54.1023
67.5904
73.4857
274.999
43.1469
0.622577
0.0735854
0.013969
0.050864
0.375086
0.940976
1.37402
1.50146
1.48103
1.5018
1.5724
1.57762
1.42618
1.12051
0.762093
0.494913
0.424764
0.552615
0.781533
1.00044
1.15286
1.24157
1.29691
1.34754
1.40829
1.48148
1.56362
1.65106
1.74224
1.83736
1.9372
2.04242
2.15343
2.27048
2.39383
2.52378
2.6607
2.80493
2.95687
3.11692
3.28548
3.46299
3.6499
3.8467
4.05385
4.2719
4.50138
4.74284
4.99685
5.26405
5.54503
5.84048
6.15103
6.47741
6.82033
7.1805
7.55869
7.95575
8.37242
8.80948
9.26785
9.74834
10.2517
10.7792
11.3316
11.9105
12.5175
13.1543
13.8226
14.5232
15.2576
16.0266
16.8305
17.6709
18.5471
19.4613
20.4133
21.4039
22.4337
23.5039
24.6144
25.766
26.9589
28.1988
29.4914
30.8446
32.2604
33.7564
35.3634
37.1371
39.1426
41.4986
44.4373
48.4845
54.2354
66.2521
73.7699
248.657
43.091
3.85215
0.135241
0.0434386
1.08815
2.44266
3.07038
2.89295
2.346
1.88607
1.7118
1.67997
1.53895
1.18951
0.729117
0.360381
0.245175
0.398444
0.690332
0.96628
1.14923
1.24563
1.29809
1.3443
1.40233
1.47439
1.55614
1.64338
1.73435
1.82917
1.92864
2.03343
2.14398
2.26055
2.38341
2.51286
2.64924
2.79292
2.94429
3.10373
3.27167
3.44854
3.63479
3.8309
4.03736
4.25469
4.48342
4.72413
4.9774
5.24379
5.52402
5.81866
6.12845
6.45408
6.7962
7.15568
7.5332
7.9296
8.34564
8.78221
9.24009
9.72015
10.2234
10.7504
11.3026
11.8805
12.4856
13.1197
13.7845
14.4817
15.2129
15.9794
16.782
17.6215
18.4983
19.4133
20.3668
21.3596
22.392
23.4641
24.5771
25.731
26.9258
28.1632
29.4435
30.7698
32.1436
33.5716
35.0732
36.6736
38.4249
40.3869
42.6744
45.5189
49.3652
54.9348
65.7494
74.4834
229.692
43.0051
2.6693
1.60917
3.27729
5.3197
5.67355
4.69427
3.22436
1.85924
1.11737
1.07583
1.24427
1.1658
0.792303
0.360354
0.134657
0.222282
0.526334
0.862993
1.10843
1.24216
1.3053
1.34729
1.39802
1.46551
1.54583
1.6331
1.72421
1.81883
1.91782
2.02204
2.13199
2.24797
2.37021
2.49901
2.63472
2.7777
2.92834
3.08702
3.25416
3.43021
3.6156
3.81082
4.01637
4.23274
4.4605
4.70019
4.95241
5.21778
5.49689
5.79044
6.09911
6.42357
6.76459
7.12289
7.49926
7.89454
8.30945
8.74497
9.20185
9.68096
10.1833
10.7096
11.2608
11.8382
12.4422
13.0743
13.7362
14.4294
15.1561
15.918
16.7167
17.5532
18.4282
19.3421
20.2962
21.29
22.3252
23.4006
24.5177
25.6759
26.8768
28.1192
29.4058
30.735
32.1116
33.5355
35.0157
36.5646
38.2018
39.9674
41.9239
44.1897
46.9947
50.7157
56.1751
65.8931
75.2982
214.702
42.8874
1.81223
14.0698
17.0819
12.2294
7.03523
3.31955
1.23873
0.419898
0.273547
0.447647
0.633048
0.599302
0.362474
0.130645
0.104993
0.326465
0.673568
0.991056
1.19915
1.30487
1.35662
1.39998
1.45791
1.53302
1.61912
1.71055
1.80532
1.90389
2.00737
2.11651
2.23168
2.35311
2.48108
2.61591
2.75796
2.90762
3.0653
3.23139
3.40633
3.59058
3.7846
3.9889
4.20399
4.43041
4.66872
4.91951
5.18338
5.46097
5.75295
6.05998
6.3828
6.7221
7.07869
7.45333
7.84677
8.25996
8.69359
9.14864
9.62604
10.1266
10.6512
11.2008
11.7765
12.379
13.0094
13.6687
14.3586
15.0804
15.8369
16.6294
17.4603
18.3303
19.2407
20.1919
21.1846
22.2191
23.2961
24.4154
25.5784
26.7829
28.032
29.3235
30.6602
32.0405
33.4694
34.9471
36.4818
38.0839
39.7739
41.5881
43.5893
45.8867
48.7012
52.3169
57.6378
66.4083
76.19
201.862
42.7951
3.20583
6.08959
11.6594
10.6833
7.22012
3.81946
1.40444
0.196867
0.104655
0.0915781
0.157988
0.154189
0.079631
0.0366708
0.142932
0.419037
0.768917
1.07039
1.26292
1.35994
1.41034
1.45755
1.52147
1.60227
1.69291
1.78813
1.8867
1.98948
2.09762
2.21174
2.33214
2.45906
2.5928
2.7337
2.88216
3.03856
3.20333
3.37689
3.5597
3.75222
3.95495
4.1684
4.39312
4.62966
4.8786
5.14056
5.41619
5.70609
6.01103
6.33163
6.66869
7.02295
7.3952
7.78623
8.1969
8.62802
9.08054
9.55533
10.0532
10.5752
11.1223
11.6953
12.2955
12.9233
13.5802
14.267
14.985
15.7356
16.5217
17.3446
18.2073
19.1108
20.0561
21.0443
22.0753
23.1503
24.2694
25.4326
26.6404
27.892
29.189
30.5309
31.9175
33.3506
34.8315
36.3634
37.9526
39.6098
41.356
43.2251
45.2781
47.6127
50.4483
53.9794
59.1995
67.1941
77.2964
191.56
42.6793
3.73556
0.296287
4.08037
6.17275
5.94867
4.51108
2.77133
1.28507
0.371857
0.0255161
0.0306528
0.0185124
0.00587944
0.0387347
0.1948
0.485917
0.833584
1.13011
1.31908
1.41469
1.46644
1.51762
1.58667
1.6723
1.76701
1.86598
1.96848
2.07563
2.18851
2.30765
2.43331
2.56575
2.70529
2.85232
3.00723
3.17042
3.34234
3.52343
3.71415
3.91501
4.1265
4.34917
4.58358
4.8303
5.08995
5.36317
5.6506
5.95292
6.27087
6.60514
6.95654
7.32582
7.71378
8.12134
8.54929
8.99848
9.46989
9.96445
10.4829
11.0266
11.5961
12.1926
12.8172
13.4705
14.1538
14.868
15.6144
16.3941
17.2097
18.0633
18.9575
19.894
20.874
21.8986
22.9679
24.0829
25.2439
26.4505
27.7035
29.0022
30.3473
31.7383
33.1755
34.6605
36.1935
37.7795
39.4237
41.1357
42.9397
44.8636
46.9719
49.3481
52.2098
55.6864
60.8416
68.2264
78.4719
182.118
42.5372
0.721437
0.0112847
0.374078
2.04429
3.47101
3.83117
3.25116
2.16721
1.03849
0.286654
0.0253261
0.00111063
0.051022
0.142952
0.312243
0.585581
0.911211
1.19307
1.37453
1.46784
1.52169
1.57787
1.65259
1.74302
1.8416
1.94422
2.05073
2.16233
2.28
2.40419
2.53514
2.67313
2.81852
2.97171
3.13311
3.30315
3.48227
3.67093
3.86963
4.07887
4.29919
4.53114
4.7753
5.03227
5.3027
5.58723
5.88653
6.20135
6.53237
6.88037
7.2462
7.63058
8.03437
8.45848
8.90376
9.37109
9.86146
10.3759
10.9151
11.4803
12.0725
12.6925
13.3414
14.0203
14.7301
15.4718
16.2465
17.0553
17.9008
18.7847
19.7102
20.6794
21.6936
22.7542
23.8611
25.016
26.2183
27.4682
28.7657
30.1109
31.5039
32.944
34.4322
35.9682
37.5552
39.1929
40.8933
42.6621
44.5234
46.5035
48.6673
51.0858
53.9821
57.4257
62.5429
69.4466
79.8266
173.717
42.3749
2.89884
0.129342
0.0147389
0.317481
1.32546
2.3179
2.67536
2.32953
1.54947
0.745004
0.252484
0.111457
0.180531
0.317918
0.495628
0.739979
1.02344
1.2697
1.43001
1.51658
1.57382
1.63755
1.71927
1.81457
1.91669
2.02282
2.13335
2.24949
2.37202
2.50128
2.63754
2.78112
2.9324
3.0918
3.25973
3.43664
3.623
3.81928
4.02599
4.24367
4.47286
4.71413
4.96811
5.23539
5.51665
5.81254
6.1238
6.45112
6.79533
7.15711
7.53742
7.93693
8.3566
8.79736
9.25999
9.74559
10.255
10.7892
11.3493
11.9361
12.5508
13.1943
13.8677
14.5721
15.3083
16.0775
16.8807
17.7188
18.5939
19.5084
20.4648
21.4662
22.5141
23.6101
24.7544
25.9485
27.1919
28.485
29.8267
31.2183
32.6593
34.1479
35.6857
37.2727
38.9129
40.6043
42.3597
44.1846
46.1023
48.1409
50.3602
52.8258
55.7624
59.1888
64.2925
70.8044
81.2074
166.07
42.1962
1.46198
0.106383
0.0132543
0.0276752
0.326005
1.05362
1.78554
2.07887
1.82376
1.21841
0.624926
0.32179
0.321682
0.47902
0.6898
0.92666
1.16383
1.35693
1.4831
1.56013
1.62356
1.69755
1.78698
1.88675
1.99204
2.10161
2.21628
2.33703
2.46443
2.59877
2.74036
2.88956
3.04676
3.21238
3.38688
3.57071
3.76434
3.96828
4.18304
4.40919
4.64729
4.89793
5.16175
5.43938
5.7315
6.03882
6.36207
6.70195
7.05934
7.43498
7.82977
8.24448
8.68014
9.1375
9.61761
10.1214
10.6498
11.204
11.7847
12.3933
13.0305
13.6976
14.3955
15.1252
15.888
16.6843
17.516
18.3833
19.2882
20.2333
21.2205
22.2538
23.335
24.466
25.6467
26.8794
28.1636
29.4993
30.8857
32.3223
33.8102
35.3477
36.9348
38.5733
40.2645
42.0107
43.8196
45.7032
47.6789
49.7741
52.0503
54.5658
57.5465
60.9707
66.0676
72.2637
82.6593
158.777
42.0013
0.24928
0.032134
0.0547597
0.042069
0.14399
0.369749
1.22007
1.92916
2.03797
1.58674
0.938255
0.484539
0.397474
0.583575
0.859986
1.11297
1.307
1.44127
1.53107
1.60126
1.67403
1.75915
1.85557
1.95904
2.0673
2.18045
2.29939
2.42481
2.55708
2.69651
2.84345
2.99827
3.16141
3.3333
3.51438
3.70514
3.90606
4.11767
4.34052
4.57516
4.82219
5.08223
5.3559
5.64392
5.94692
6.26568
6.60092
6.95344
7.32405
7.71355
8.12287
8.55277
9.0043
9.47832
9.97589
10.4979
11.0454
11.6194
12.221
12.8511
13.5108
14.2014
14.9237
15.6787
16.4677
17.2914
18.1513
19.0477
19.9825
20.9577
21.9757
23.0407
24.1545
25.3197
26.5367
27.8072
29.1317
30.5094
31.94
33.4213
34.9555
36.5412
38.1774
39.8674
41.6092
43.41
45.2738
47.212
49.245
51.3996
53.7357
56.304
59.3355
62.7683
67.8585
73.8006
84.1536
153.965
41.7824
3.17347
0.27654
0.276626
0.137872
0.326953
0.999268
1.74794
2.15043
2.10554
1.67291
1.05656
0.56136
0.441646
0.668906
1.00729
1.27194
1.42533
1.51023
1.57452
1.64463
1.72805
1.82264
1.92433
2.03091
2.14229
2.25929
2.38261
2.51267
2.6498
2.79432
2.94661
3.10708
3.27616
3.4543
3.64198
3.83968
4.0479
4.2672
4.49812
4.74127
4.99724
5.26668
5.55024
5.84863
6.16254
6.49272
6.83998
7.20508
7.5889
7.99226
8.41608
8.86121
9.32866
9.81932
10.3343
10.8745
11.441
12.0348
12.657
13.3087
13.9909
14.7047
15.4512
16.2315
17.0465
17.8977
18.7852
19.7111
20.6753
21.6808
22.7297
23.8254
24.9718
26.1706
27.4227
28.7304
30.0941
31.513
32.9871
34.5145
36.0935
37.7274
39.4114
41.1512
42.9449
44.7984
46.7166
48.7131
50.8044
53.0181
55.4115
58.0374
61.1219
64.5716
69.66
75.3789
85.6828
149.9
41.5469
2.25028
0.200548
1.66912
2.18542
3.7124
4.05342
3.20038
2.19461
1.63202
1.35327
1.00801
0.637948
0.545062
0.79069
1.14113
1.38864
1.50558
1.56149
1.61727
1.69349
1.78619
1.88721
1.99258
2.10213
2.21699
2.33804
2.46577
2.60046
2.74242
2.89202
3.04965
3.21577
3.39079
3.5752
3.76947
3.9741
4.18962
4.41662
4.65562
4.90726
5.17216
5.45099
5.74441
6.05315
6.37794
6.71957
7.0788
7.45649
7.8535
8.27065
8.70891
9.16926
9.65253
10.1598
10.6921
11.2504
11.8359
12.4494
13.0921
13.7653
14.4698
15.2069
15.9775
16.7828
17.6237
18.5016
19.417
20.3716
21.3653
22.4011
23.4801
24.6069
25.7843
27.0161
28.3031
29.6465
31.0489
32.5093
34.0259
35.5983
37.2227
38.9033
40.6355
42.425
44.2707
46.1761
48.1501
50.2014
52.3495
54.6247
57.0815
59.7652
62.9062
66.3785
71.4605
76.9924
87.2394
145.442
41.2904
1.51032
0.00740897
8.1918
13.4002
10.8179
6.49952
2.99851
1.1437
0.742321
0.911174
0.923038
0.74917
0.724341
0.958426
1.26293
1.46434
1.55321
1.6017
1.66299
1.74787
1.84696
1.95176
2.05999
2.17276
2.2914
2.41663
2.54874
2.68801
2.83477
2.98944
3.15243
3.32418
3.50514
3.69579
3.89663
4.10818
4.33099
4.56562
4.81268
5.07281
5.34662
5.6348
5.93807
6.25713
6.59281
6.9458
7.31698
7.70719
8.11735
8.54825
9.00095
9.47634
9.97547
10.4993
11.0487
11.6251
12.2293
12.8625
13.5257
14.2201
14.9467
15.7067
16.5014
17.3314
18.1984
19.1025
20.0457
21.0286
22.0517
23.117
24.2263
25.3837
26.5922
27.8562
29.1775
30.5556
31.9951
33.4947
35.0541
36.6704
38.3404
40.0676
41.8481
43.6853
45.582
47.5407
49.5681
51.6758
53.883
56.2184
58.7373
61.4815
64.6802
68.1768
73.2541
78.6292
88.8428
142.224
41.0124
0.522125
7.69531
102.932
49.5462
14.588
2.37833
0.377933
0.144149
0.241377
0.587974
0.808586
0.848302
0.930367
1.14086
1.36758
1.51193
1.58389
1.63954
1.71276
1.80551
1.90839
2.01561
2.12665
2.24291
2.36551
2.4949
2.63135
2.77517
2.92673
3.08646
3.25477
3.43212
3.61899
3.81586
4.02326
4.24171
4.47177
4.71405
4.96913
5.23768
5.52036
5.81788
6.13095