/*--------------------------------*- C++ -*----------------------------------*\
  =========                 |
  \\      /  F ield         | OpenFOAM: The Open Source CFD Toolbox
   \\    /   O peration     | Website:  https://openfoam.org
    \\  /    A nd           | Version:  9
     \\/     M anipulation  |
\*---------------------------------------------------------------------------*/
FoamFile
{
    format      ascii;
    class       volScalarField;
    location    "2250";
    object      p;
}
// * * * * * * * * * * * * * * * * * * * * * * * * * * * * * * * * * * * * * //

dimensions      [0 2 -2 0 0 0 0];

internalField   nonuniform List<scalar> 
13446
(
2.12211e-05
6.68757e-05
5.15928e-05
0.000112157
9.76515e-05
8.98162e-05
8.55935e-05
8.13966e-05
0.000157038
0.00014331
0.000135978
0.000132394
0.000129044
0.000126688
0.000201508
0.000188555
0.000181736
0.000178784
0.000176277
0.000174866
0.000175109
0.000245545
0.000233364
0.000227075
0.00022475
0.000223068
0.00022259
0.000223887
0.000226835
0.00023136
0.000237553
0.000245499
0.000255276
0.00026698
0.000280727
0.000296643
0.00031487
0.000335563
0.000358887
0.000385026
0.000414168
0.000446518
0.000482299
0.000521739
0.000565086
0.000612604
0.000664576
0.000721301
0.000783106
0.000850351
0.000923417
0.00100272
0.000289132
0.000277717
0.000271968
0.000270267
0.000269398
0.000269837
0.000272172
0.000276295
0.000282149
0.000289823
0.000299409
0.000310995
0.000324685
0.000340603
0.00035889
0.000379696
0.00040319
0.000429551
0.000458979
0.000491681
0.000527882
0.000567826
0.000611769
0.000659985
0.00071277
0.000770443
0.000833346
0.00090184
0.000976333
0.00105726
0.00114509
0.00124035
0.00134364
0.0360442
0.0383286
0.0406357
0.042935
0.0451856
0.047334
0.0493118
0.0510239
0.0523557
0.0531415
0.0531756
0.0521782
0.0498323
0.0455738
0.0390279
0.0290437
0.0156808
-0.00387454
-0.026793
-0.060877
-0.0932597
-0.145792
-0.180023
-0.247461
-0.271324
-0.333228
0.000332252
0.0003216
0.0003164
0.000315315
0.000315249
0.000316595
0.000319947
0.000325227
0.000332381
0.000341503
0.000352693
0.000366048
0.000381681
0.000399724
0.000420328
0.000443656
0.00046989
0.000499222
0.000531867
0.00056805
0.000608019
0.000652035
0.000700383
0.000753363
0.000811303
0.000874551
0.000943488
0.00101852
0.0011001
0.0011887
0.00128486
0.00138916
0.00150223
0.0016248
0.0361722
0.0385936
0.04108
0.0436126
0.0461645
0.0486988
0.0511677
0.0535082
0.055634
0.0574368
0.0587599
0.0594095
0.0591108
0.0575483
0.054174
0.0485861
0.0396099
0.0271928
0.00849333
-0.0139843
-0.0481733
-0.0814742
-0.136523
-0.173187
-0.246757
-0.272262
-0.34059
0.000374895
0.000364998
0.000360351
0.000359873
0.000360599
0.000362839
0.000367185
0.000373603
0.000382036
0.000392573
0.000405331
0.000420416
0.000437947
0.000458068
0.000480937
0.000506729
0.000535639
0.000567874
0.000603662
0.000643248
0.000686897
0.000734894
0.000787546
0.00084518
0.000908152
0.000976846
0.00105168
0.0011331
0.00122158
0.00131768
0.00142195
0.00153505
0.00165767
0.00179059
0.00193465
0.00209079
0.0359746
0.0384767
0.0410768
0.0437621
0.0465163
0.0493169
0.0521314
0.0549166
0.0576175
0.0601543
0.0624272
0.0642919
0.0655649
0.0659857
0.0652364
0.062787
0.0582189
0.0503627
0.0390425
0.0214118
-0.000357602
-0.0343825
-0.0683147
-0.125821
-0.164907
-0.245119
-0.272746
-0.348407
0.000417042
0.000407893
0.000403809
0.000403933
0.000405431
0.000408553
0.000413881
0.000421409
0.00043109
0.000443015
0.000457305
0.00047408
0.000493466
0.000515614
0.000540695
0.000568893
0.000600415
0.000635483
0.000674339
0.000717247
0.000764489
0.00081637
0.000873222
0.000935398
0.00100328
0.00107729
0.00115787
0.00124551
0.00134073
0.00144413
0.00155631
0.00167798
0.00180988
0.00195285
0.00210781
0.00227576
0.00245782
0.0228651
0.0246722
0.0265968
0.0286416
0.0308095
0.0331017
0.0355184
0.0380587
0.0407192
0.0434942
0.046374
0.0493454
0.0523893
0.0554798
0.058579
0.061636
0.0645805
0.0673206
0.069727
0.0716283
0.0727748
0.0728665
0.0713902
0.0679053
0.061276
0.0512053
0.0348256
0.0140374
-0.0195004
-0.0537554
-0.113473
-0.154964
-0.242543
-0.272612
-0.356915
0.00045868
0.000450268
0.000446752
0.000447472
0.000449733
0.000453719
0.000460014
0.000468628
0.00047953
0.000492812
0.0005086
0.000527024
0.000548219
0.000572345
0.000599583
0.000630129
0.000664199
0.000702029
0.000743878
0.000790024
0.000840768
0.000896433
0.000957378
0.00102398
0.00109665
0.00117583
0.00126201
0.00135571
0.00145749
0.00156799
0.00168786
0.00181786
0.00195879
0.00211153
0.00227707
0.00245647
0.00265091
0.00286169
0.00309022
0.0223524
0.0241244
0.0260161
0.0280317
0.0301754
0.0324504
0.0348592
0.0374038
0.040084
0.0428986
0.0458445
0.0489149
0.0521002
0.0553836
0.0587435
0.0621496
0.0655574
0.0689056
0.0721131
0.075059
0.0775877
0.0794665
0.0804134
0.0799422
0.0776
0.0722732
0.0636049
0.0486927
0.029152
-0.00355634
-0.0377281
-0.0992862
-0.143063
-0.238499
-0.271574
-0.366887
0.000499802
0.000492117
0.000489169
0.000490477
0.000493488
0.000498327
0.000505566
0.000515246
0.000527338
0.000541944
0.000559196
0.00057923
0.00060219
0.000628245
0.000657585
0.000690417
0.00072697
0.000767492
0.000812255
0.000861552
0.000915705
0.000975058
0.00103999
0.0011109
0.00118822
0.00127244
0.00136406
0.00146365
0.00157181
0.00168921
0.00181655
0.00195464
0.00210432
0.00226654
0.00244234
0.00263285
0.00283929
0.00306302
0.00330556
0.00356851
0.00385367
0.0147389
0.0159479
0.0172499
0.0186502
0.0201544
0.021768
0.0234964
0.0253449
0.027319
0.0294236
0.0316632
0.0340425
0.0365651
0.0392337
0.0420506
0.0450161
0.048129
0.0513852
0.0547784
0.0582961
0.0619216
0.0656297
0.0693823
0.0731274
0.0767934
0.0802764
0.0834331
0.0860504
0.0878632
0.0884148
0.0872636
0.0833241
0.0761807
0.0629506
0.0449443
0.0135272
-0.0201524
-0.0832374
-0.128955
-0.232692
-0.269061
-0.379804
0.00054039
0.000533424
0.000531047
0.000532933
0.000536678
0.000542358
0.000550521
0.000561243
0.000574503
0.000590403
0.000609082
0.000630683
0.000655363
0.000683297
0.000714684
0.000749742
0.00078871
0.00083185
0.000879449
0.000931813
0.000989282
0.00105222
0.00112102
0.00119612
0.00127797
0.00136707
0.00146399
0.0015693
0.00168365
0.00180774
0.00194233
0.00208826
0.00224643
0.00241783
0.00260356
0.00280481
0.00302286
0.00325915
0.0035152
0.00379275
0.00409364
0.00441986
0.00477362
0.0051573
0.00557345
0.0154918
0.0167509
0.0181062
0.0195634
0.0211283
0.0228066
0.0246043
0.0265273
0.0285814
0.0307722
0.0331053
0.0355862
0.0382195
0.0410095
0.0439592
0.0470718
0.0503475
0.0537852
0.0573815
0.0611287
0.0650133
0.0690158
0.0731068
0.0772429
0.0813622
0.085374
0.0891518
0.0925055
0.0951922
0.0967893
0.096861
0.0943855
0.0888817
0.077519
0.061371
0.0316095
-0.00102354
-0.0650658
-0.112337
-0.224884
-0.264408
-0.3946
0.000580434
0.000574175
0.00057237
0.000574829
0.000579295
0.000585797
0.000594871
0.00060661
0.000621006
0.000638167
0.000658237
0.000681369
0.000707723
0.000737486
0.000770865
0.000808086
0.000849403
0.000895089
0.000945442
0.00100079
0.00106148
0.00112789
0.00120045
0.00127961
0.00136585
0.00145971
0.00156175
0.0016726
0.00179295
0.00192353
0.00206514
0.00221866
0.00238505
0.00256534
0.00276068
0.0029723
0.00320157
0.00344997
0.00371911
0.00401075
0.0043268
0.00466934
0.00504063
0.00544312
0.00587944
0.00635241
0.00686511
0.0162199
0.0175277
0.0189347
0.020447
0.0220706
0.0238117
0.0256768
0.027672
0.0298038
0.0320786
0.0345028
0.0370824
0.0398234
0.042731
0.0458108
0.0490663
0.0525008
0.0561159
0.0599104
0.0638802
0.0680179
0.0723096
0.0767317
0.0812497
0.0858135
0.0903476
0.09474
0.0988249
0.102382
0.10503
0.106356
0.105396
0.10165
0.0923437
0.0783296
0.0506726
0.0196316
-0.044708
-0.0929575
-0.214288
-0.25697
-0.408855
0.000619928
0.00061436
0.000613128
0.000616151
0.000621321
0.000628631
0.000638597
0.000651331
0.000666839
0.00068523
0.000706656
0.000731276
0.000759257
0.000790798
0.000826112
0.000865437
0.000909035
0.000957191
0.00101022
0.00106845
0.00113227
0.00120206
0.00127826
0.00136136
0.00145186
0.00155031
0.00165731
0.00177354
0.00189969
0.00203655
0.00218494
0.0023458
0.00252013
0.00270901
0.00291362
0.00313527
0.00337538
0.00363546
0.0039172
0.00422242
0.00455309
0.00491135
0.00529954
0.00572016
0.0061759
0.00666968
0.00720463
0.00778406
0.00841156
0.00909091
0.00982612
0.0106215
0.0114814
0.0124107
0.0134143
0.0144974
0.0156654
0.0169238
0.0182785
0.0197355
0.0213011
0.0229817
0.0247839
0.0267142
0.0287794
0.0309868
0.0333432
0.0358558
0.0385314
0.0413771
0.0443999
0.0476056
0.0510006
0.0545898
0.058377
0.0623645
0.0665527
0.0709376
0.07551
0.0802555
0.085148
0.0901472
0.0951922
0.100191
0.105
0.109426
0.113125
0.115722
0.116325
0.114423
0.107348
0.095741
0.0706585
0.0417757
-0.022093
-0.0705358
-0.200812
-0.246139
-0.422066
0.000658858
0.000653969
0.000653308
0.000656888
0.000662749
0.000670849
0.000681685
0.000695392
0.000711985
0.000731574
0.000754319
0.000780386
0.000809953
0.00084322
0.000880414
0.00092178
0.000967589
0.00101814
0.00107376
0.0011348
0.00120163
0.00127469
0.00135443
0.00144134
0.00153595
0.00163884
0.00175065
0.00187207
0.00200383
0.00214675
0.0023017
0.00246964
0.00265163
0.00284879
0.00306235
0.00329367
0.00354421
0.00381555
0.00410943
0.00442772
0.00477247
0.00514587
0.00555032
0.00598838
0.00646282
0.00697662
0.00753297
0.00813527
0.00878716
0.00949254
0.0102555
0.0110803
0.0119717
0.0129344
0.0139734
0.0150943
0.0163023
0.0176034
0.0190036
0.0205091
0.0221264
0.0238622
0.0257234
0.0277169
0.0298505
0.0321312
0.0345669
0.0371654
0.0399346
0.0428824
0.0460164
0.0493449
0.0528754
0.0566151
0.0605706
0.0647465
0.0691463
0.0737714
0.0786185
0.08368
0.0889375
0.0943631
0.0999087
0.105501
0.111022
0.116307
0.121056
0.12493
0.127117
0.127115
0.122415
0.113493
0.0914722
0.0654125
0.00290615
-0.0448625
-0.183432
-0.231416
-0.433991
0.000697213
0.000692989
0.000692898
0.000697026
0.000703563
0.000712437
0.000724127
0.000738784
0.000756435
0.00077719
0.000801219
0.000828693
0.000859798
0.000894741
0.000933757
0.0009771
0.00102505
0.00107793
0.00113605
0.0011998
0.00126956
0.00134578
0.00142893
0.00151952
0.0016181
0.00172529
0.00184174
0.00196816
0.00210533
0.0022541
0.00241537
0.00259015
0.00277951
0.00298464
0.00320682
0.00344745
0.00370802
0.0039902
0.00429575
0.00462662
0.0049849
0.00537286
0.00579294
0.00624776
0.00674019
0.00727323
0.00785015
0.00847445
0.00914984
0.00988024
0.0106699
0.0115231
0.0124447
0.0134395
0.0145129
0.0156701
0.0169169
0.0182592
0.0197033
0.0212557
0.022923
0.0247122
0.0266307
0.0286858
0.0308853
0.0332373
0.03575
0.038432
0.0412919
0.0443385
0.0475813
0.0510295
0.0546921
0.0585785
0.0626973
0.0670563
0.0716627
0.076522
0.0816364
0.0870047
0.0926176
0.0984581
0.104493
0.110668
0.116887
0.123016
0.128803
0.133953
0.137747
0.139708
0.137509
0.131476
0.112952
0.0904111
0.0303831
-0.0156702
-0.161791
-0.212102
-0.443073
0.000734987
0.000731412
0.000731887
0.000736556
0.000743751
0.000753387
0.000765912
0.000781493
0.000800172
0.000822067
0.000847343
0.000876183
0.000908778
0.000945347
0.000986129
0.00103139
0.00108142
0.00113653
0.00119708
0.00126345
0.00133604
0.00141531
0.00150175
0.00159589
0.00169831
0.00180964
0.00193055
0.0020618
0.00220417
0.00235857
0.00252592
0.00270727
0.00290374
0.00311653
0.00334699
0.00359655
0.00386678
0.00415935
0.00447612
0.00481907
0.00519035
0.00559228
0.00602736
0.00649829
0.00700797
0.00755949
0.00815619
0.00880161
0.00949954
0.010254
0.0110693
0.0119499
0.0129006
0.0139264
0.0150328
0.0162251
0.0175093
0.0188914
0.020378
0.0219757
0.0236914
0.0255324
0.0275062
0.0296209
0.0318846
0.0343057
0.0368933
0.0396563
0.0426045
0.0457479
0.0490966
0.0526611
0.056452
0.0604806
0.0647583
0.0692956
0.0741031
0.0791907
0.084565
0.0902322
0.0961917
0.102436
0.108947
0.115688
0.122591
0.129551
0.136362
0.142776
0.148175
0.152129
0.15253
0.149597
0.135032
0.116638
0.0602251
0.0173144
-0.13532
-0.187958
-0.446071
0.000772171
0.000769228
0.000770265
0.000775466
0.000783306
0.000793683
0.000807025
0.00082351
0.000843193
0.00086619
0.000892679
0.000922845
0.000956888
0.00099503
0.00103752
0.00108463
0.00113666
0.00119394
0.00125683
0.00132572
0.00140104
0.00148325
0.00157287
0.00167042
0.00177654
0.00189184
0.00201706
0.00215294
0.00230033
0.00246013
0.00263332
0.00282098
0.00302425
0.00324442
0.00348283
0.00374096
0.00402043
0.00432299
0.00465051
0.00500504
0.00538878
0.0058041
0.00625357
0.00673994
0.00726616
0.0078354
0.00845106
0.00911677
0.00983636
0.0106139
0.0114539
0.0123607
0.0133394
0.0143951
0.0155332
0.0167594
0.0180796
0.0195003
0.0210279
0.0226694
0.0244319
0.026323
0.0283507
0.0305231
0.032849
0.0353372
0.0379975
0.0408393
0.0438733
0.0471105
0.050562
0.0542394
0.0581551
0.0623226
0.0667552
0.071466
0.0764688
0.0817773
0.0874049
0.0933625
0.0996577
0.106295
0.11327
0.120563
0.128131
0.1359
0.143713
0.151376
0.158373
0.16433
0.167399
0.167703
0.15754
0.143975
0.092598
0.0544782
-0.104175
-0.15876
-0.450928
0.000808753
0.000806428
0.000808023
0.000813748
0.000822217
0.000833319
0.000847458
0.000864824
0.000885483
0.000909556
0.000937221
0.000968671
0.00100411
0.00104378
0.00108792
0.00113682
0.00119078
0.00125015
0.0013153
0.00138662
0.00146456
0.00154961
0.00164226
0.00174311
0.00185277
0.0019719
0.00210123
0.00224157
0.00239376
0.00255875
0.00273754
0.00293124
0.00314105
0.00336826
0.00361428
0.00388062
0.00416896
0.00448106
0.00481888
0.00518449
0.00558015
0.00600829
0.00647153
0.00697267
0.00751475
0.00810098
0.00873481
0.00941994
0.0101603
0.01096
0.0118236
0.0127558
0.0137614
0.0148458
0.0160144
0.0172731
0.0186282
0.0200859
0.0216531
0.0233369
0.0251447
0.0270844
0.0291642
0.0313925
0.0337786
0.036332
0.0390627
0.041981
0.0450983
0.0484268
0.0519784
0.0557656
0.0598035
0.0641062
0.0686884
0.0735676
0.0787606
0.0842845
0.0901575
0.0963976
0.103021
0.11004
0.117465
0.125294
0.133508
0.142065
0.150855
0.159736
0.168304
0.176253
0.18203
0.185689
0.180336
0.172106
0.12755
0.0959768
-0.068891
-0.122216
-0.479346
0.000844728
0.000843005
0.000845151
0.00085139
0.000860472
0.000872283
0.000887202
0.000905426
0.000927032
0.000952147
0.000980954
0.00101365
0.00105045
0.00109158
0.00113732
0.00118794
0.00124377
0.00130515
0.00137247
0.00144613
0.00152659
0.00161435
0.00170993
0.00181393
0.00192699
0.00204978
0.00218306
0.00232766
0.00248445
0.0026544
0.00283855
0.00303804
0.00325409
0.00348803
0.00374132
0.00401551
0.00431231
0.00463354
0.00498118
0.00535738
0.00576443
0.00620482
0.00668122
0.00719649
0.00775373
0.00835619
0.00900739
0.00971114
0.0104714
0.0112924
0.0121787
0.013135
0.0141664
0.0152784
0.0164765
0.0177666
0.019155
0.0206485
0.0222539
0.0239785
0.0258301
0.0278167
0.0299468
0.0322294
0.0346741
0.0372908
0.0400899
0.0430828
0.0462814
0.0496983
0.0533467
0.0572409
0.0613968
0.0658303
0.0705594
0.0756031
0.0809807
0.0867136
0.092825
0.0993391
0.106279
0.113669
0.121529
0.129877
0.138716
0.148036
0.157776
0.167848
0.177954
0.187862
0.196329
0.203364
0.203166
0.200666
0.165317
0.141904
-0.0249149
-0.0714603
-0.546328
0.000880087
0.000878944
0.000881637
0.000888384
0.000898065
0.000910567
0.000926246
0.000945304
0.000967833
0.000993962
0.00102387
0.00105777
0.00109588
0.00113843
0.0011857
0.00123799
0.00129561
0.00135893
0.00142832
0.00150423
0.00158711
0.00167747
0.00177585
0.00188287
0.00199918
0.00212547
0.00226253
0.0024112
0.00257238
0.00274706
0.00293632
0.00314132
0.00336332
0.00360369
0.00386391
0.00414559
0.00445045
0.00478038
0.00513739
0.00552368
0.00594159
0.00639367
0.00688262
0.00741137
0.00798306
0.00860102
0.00926884
0.00999037
0.0107696
0.0116109
0.0125189
0.0134985
0.0145547
0.0156931
0.0169194
0.0182398
0.0196604
0.0211884
0.0228306
0.0245946
0.0264884
0.0285204
0.0306993
0.0330345
0.035536
0.0382141
0.0410797
0.044145
0.0474222
0.0509248
0.0546676
0.058666
0.0629365
0.0674978
0.0723693
0.0775717
0.083129
0.0890658
0.0954079
0.102186
0.109433
0.117182
0.125466
0.134316
0.143758
0.153815
0.16447
0.175688
0.187281
0.199102
0.210229
0.220631
0.22577
0.229263
0.205784
0.191461
0.0381154
0.00256523
-0.606193
0.000914821
0.000914243
0.000917475
0.000924719
0.000934983
0.000948159
0.000964581
0.000984454
0.00100788
0.00103499
0.00106597
0.00110103
0.0011404
0.00118432
0.00123307
0.00128695
0.0013463
0.00141146
0.00148286
0.00156091
0.0016461
0.00173895
0.00184001
0.00194991
0.00206932
0.00219895
0.00233961
0.00249216
0.00265752
0.00283671
0.00303083
0.00324108
0.00346874
0.00371522
0.00398203
0.00427082
0.00458335
0.00492155
0.00528748
0.00568336
0.0061116
0.00657479
0.00707569
0.00761728
0.00820274
0.00883548
0.00951913
0.0102576
0.011055
0.0119158
0.0128445
0.0138463
0.0149263
0.01609
0.0173434
0.0186926
0.0201443
0.0217055
0.0233832
0.0251852
0.0271198
0.0291957
0.0314219
0.0338079
0.0363643
0.0391017
0.0420318
0.045167
0.0485208
0.0521072
0.0559419
0.0600418
0.0644243
0.0691092
0.0741183
0.0794754
0.0852066
0.0913399
0.0979067
0.104942
0.112488
0.120583
0.129271
0.138605
0.148632
0.159399
0.170936
0.183259
0.196281
0.209942
0.223625
0.237325
0.247773
0.25733
0.247567
0.242958
0.127668
0.100558
-0.54242
0.000948925
0.000948892
0.000952655
0.00096039
0.000971221
0.000985054
0.0010022
0.00102286
0.00104715
0.00107521
0.00110723
0.00114342
0.00118401
0.00122924
0.00127941
0.00133483
0.00139582
0.00146276
0.00153606
0.00161617
0.00170357
0.00179879
0.0019024
0.00201504
0.0021374
0.00227021
0.00241429
0.00257052
0.00273985
0.00292332
0.00312206
0.00333728
0.00357031
0.00382258
0.00409565
0.00439117
0.00471098
0.00505701
0.00543139
0.00583638
0.00627443
0.00674816
0.0072604
0.00781417
0.00841272
0.00905951
0.00975825
0.0105129
0.0113276
0.0122069
0.0131555
0.0141785
0.0152811
0.016469
0.0177484
0.0191254
0.0206069
0.0221998
0.0239116
0.0257503
0.0277244
0.0298425
0.0321141
0.0345492
0.0371588
0.0399539
0.0429466
0.0461499
0.0495779
0.0532459
0.0571697
0.0613677
0.0658589
0.0706647
0.0758085
0.0813152
0.0872144
0.0935392
0.100324
0.10761
0.115442
0.12387
0.13295
0.14275
0.153336
0.164783
0.17716
0.190534
0.204915
0.220336
0.236455
0.253324
0.268842
0.284417
0.288339
0.294291
0.23223
0.210407
-0.246588
0.000982389
0.000982883
0.000987171
0.000995384
0.00100677
0.00102124
0.00103909
0.00106052
0.00108566
0.00111464
0.00114766
0.00118493
0.00122669
0.00127319
0.00132472
0.0013816
0.00144417
0.00151281
0.00158793
0.00167
0.00175949
0.00185697
0.001963
0.00207825
0.0022034
0.00233923
0.00248655
0.00264626
0.00281935
0.00300687
0.00320997
0.0034299
0.003668
0.00392575
0.00420472
0.00450662
0.00483329
0.00518674
0.00556911
0.0059827
0.00643002
0.00691373
0.00743671
0.00800203
0.00861299
0.00927311
0.00998615
0.0107561
0.0115873
0.0124842
0.0134517
0.0144948
0.0156191
0.0168303
0.0181346
0.0195382
0.0210481
0.0226716
0.0244163
0.0262903
0.0283022
0.0304611
0.0327768
0.0352595
0.0379203
0.0407712
0.0438246
0.0470941
0.050594
0.0543405
0.0583509
0.0626435
0.06724
0.0721632
0.0774376
0.08309
0.0891538
0.0956642
0.102659
0.110185
0.118294
0.127042
0.136499
0.146746
0.157868
0.169964
0.183143
0.19752
0.213187
0.230264
0.248646
0.268496
0.288669
0.310076
0.32624
0.343528
0.328855
0.318979
0.12251
0.0010152
0.00101621
0.00102101
0.00102969
0.00104161
0.00105671
0.00107525
0.00109743
0.00112339
0.00115326
0.00118723
0.00122555
0.00126843
0.00131615
0.00136899
0.00142727
0.00149134
0.0015616
0.00163846
0.00172238
0.00181387
0.00191348
0.00202181
0.00213952
0.00226732
0.00240599
0.00255636
0.00271937
0.002896
0.00308733
0.00329454
0.0035189
0.00376179
0.00402469
0.00430922
0.00461712
0.00495026
0.00531069
0.00570058
0.00612229
0.00657835
0.00707147
0.00760459
0.00818081
0.00880349
0.00947623
0.0102028
0.0109873
0.011834
0.0127477
0.0137331
0.0147955
0.0159405
0.0171738
0.0185017
0.0199307
0.021468
0.0231208
0.024897
0.0268049
0.0288532
0.0310515
0.0334096
0.0359382
0.0386487
0.0415534
0.0446651
0.0479984
0.0515682
0.0553909
0.0594851
0.0638709
0.0685696
0.0736053
0.0790056
0.0847994
0.0910219
0.0977112
0.104909
0.112666
0.12104
0.130098
0.139919
0.150593
0.162223
0.174934
0.188866
0.204182
0.221049
0.239664
0.260125
0.282723
0.307033
0.333797
0.359989
0.388637
0.407094
0.42089
0.391935
0.00104736
0.00104887
0.00105417
0.00106331
0.00107575
0.00109146
0.00111067
0.00113358
0.00116032
0.00119105
0.00122596
0.00126528
0.00130924
0.00135812
0.0014122
0.00147182
0.00153733
0.00160912
0.00168762
0.0017733
0.00186668
0.00196831
0.00207881
0.00219884
0.00232913
0.00247047
0.00262372
0.00278981
0.00296977
0.00316468
0.00337575
0.00360426
0.00385163
0.00411936
0.0044091
0.00472262
0.00506184
0.00542881
0.00582576
0.00625508
0.00671935
0.00722132
0.00776396
0.00835045
0.00898418
0.00966877
0.0104081
0.0112063
0.0120678
0.0129973
0.0139997
0.0150804
0.0162449
0.0174993
0.0188498
0.0203031
0.0218664
0.0235472
0.0253535
0.0272938
0.0293771
0.031613
0.0340121
0.0365849
0.0393435
0.0423002
0.0454684
0.0488635
0.0525011
0.056398
0.0605737
0.0650493
0.0698469
0.0749919
0.0805138
0.0864442
0.0928191
0.0996811
0.107076
0.115055
0.123684
0.13304
0.143207
0.154286
0.166399
0.179692
0.194331
0.210518
0.228491
0.248528
0.270872
0.29593
0.323785
0.355242
0.389274
0.427736
0.466534
0.504593
0.546882
0.00107884
0.00108085
0.00108665
0.00109623
0.00110918
0.00112548
0.00114534
0.00116896
0.00119647
0.00122803
0.00126384
0.00130412
0.00134912
0.0013991
0.00145438
0.00151527
0.00158213
0.00165538
0.00173543
0.00182278
0.00191793
0.00202147
0.002134
0.00225621
0.00238884
0.00253268
0.00268863
0.00285761
0.00304067
0.00323892
0.00345359
0.00368598
0.00393753
0.00420977
0.00450437
0.00482314
0.00516801
0.00554109
0.00594464
0.00638107
0.00685301
0.00736326
0.00791482
0.00851092
0.009155
0.00985074
0.0106021
0.0114132
0.0122886
0.013233
0.0142515
0.0153494
0.0165325
0.0178069
0.0191787
0.0206552
0.0222433
0.0239509
0.0257859
0.0277573
0.0298742
0.0321464
0.0345845
0.0371999
0.0400048
0.0430116
0.0462346
0.0496891
0.0533919
0.0573607
0.0616149
0.0661764
0.0710692
0.0763211
0.0819616
0.0880239
0.094546
0.101574
0.109155
0.117349
0.126226
0.135863
0.146359
0.157822
0.170388
0.184225
0.199521
0.216517
0.235498
0.256803
0.280804
0.30801
0.338807
0.374099
0.413902
0.459655
0.509808
0.563515
0.621175
0.00110964
0.00111215
0.00111843
0.00112844
0.00114188
0.00115875
0.00117925
0.00120356
0.00123181
0.00126417
0.00130084
0.00134205
0.00138803
0.00143908
0.00149548
0.00155757
0.00162573
0.00170035
0.00178187
0.00187078
0.0019676
0.00207291
0.00218735
0.0023116
0.0024464
0.00259258
0.00275103
0.0029227
0.00310864
0.00331
0.00352801
0.003764
0.00401942
0.00429584
0.00459495
0.00491858
0.00526871
0.00564746
0.00605713
0.00650017
0.00697925
0.0074972
0.00805707
0.00866213
0.00931589
0.0100221
0.0107846
0.0116079
0.0124963
0.0134547
0.0144884
0.0156026
0.0168032
0.0180964
0.0194886
0.020987
0.0225988
0.0243318
0.0261943
0.0281955
0.0303445
0.0326514
0.035127
0.0377832
0.0406325
0.0436875
0.0469628
0.0504744
0.0542401
0.0582783
0.0626085
0.0672532
0.0722378
0.0775922
0.0833464
0.0895353
0.0962
0.103386
0.111147
0.119548
0.128659
0.138564
0.149369
0.161195
0.174187
0.188524
0.204424
0.222159
0.242043
0.264463
0.289886
0.31889
0.352037
0.390245
0.433932
0.484221
0.53944
0.598353
0.647003
0.00113972
0.0011427
0.00114944
0.00115987
0.00117378
0.0011912
0.00121231
0.00123727
0.00126622
0.00129934
0.00133683
0.0013789
0.00142582
0.00147786
0.00153532
0.00159855
0.00166791
0.0017438
0.00182669
0.00191704
0.00201541
0.00212237
0.00223857
0.00236469
0.0025015
0.00264983
0.00281057
0.00298471
0.0031733
0.0033775
0.00359857
0.00383785
0.00409682
0.00437707
0.00468031
0.00500841
0.00536335
0.00574731
0.0061626
0.00661172
0.00709737
0.00762242
0.00818996
0.00880331
0.00946601
0.0101818
0.0109549
0.0117894
0.01269
0.0136615
0.0147093
0.0158388
0.0170558
0.0183668
0.0197782
0.0212972
0.0229313
0.0246885
0.0265772
0.0286065
0.0307861
0.0331263
0.0356381
0.0383333
0.0412248
0.044326
0.0476522
0.0512193
0.0550449
0.0591488
0.0635519
0.0682774
0.0733513
0.0788038
0.0846669
0.0909783
0.0977787
0.105118
0.113052
0.121646
0.130977
0.141136
0.152235
0.1644
0.177787
0.192589
0.209042
0.227433
0.248102
0.271478
0.29807
0.328497
0.363407
0.40363
0.44951
0.50176
0.557524
0.613505
0.64927
0.00116906
0.00117246
0.00117963
0.00119045
0.0012048
0.00122273
0.0012444
0.00126997
0.00129958
0.00133341
0.00137165
0.00141453
0.00146231
0.00151526
0.0015737
0.00163797
0.00170843
0.00178549
0.00186962
0.0019613
0.00206107
0.00216953
0.00228731
0.00241513
0.00255375
0.00270401
0.00286683
0.00304318
0.00323415
0.0034409
0.00366472
0.00390696
0.00416912
0.00445281
0.00475977
0.00509187
0.00545116
0.0058398
0.00626017
0.00671479
0.00720638
0.00773787
0.00831238
0.00893327
0.00960412
0.0103288
0.0111113
0.0119561
0.0128679
0.0138516
0.0149124
0.016056
0.0172883
0.0186159
0.0200452
0.0215835
0.0232385
0.0250183
0.0269317
0.0289876
0.0311962
0.0335679
0.0361137
0.0388461
0.0417779
0.0449232
0.048298
0.0519182
0.0558018
0.0599687
0.0644416
0.0692446
0.0744039
0.0799505
0.0859181
0.0923465
0.0992776
0.106763
0.114862
0.123641
0.13318
0.143577
0.154948
0.167425
0.181175
0.196397
0.213338
0.232305
0.253655
0.277833
0.305343
0.336826
0.372894
0.414233
0.460863
0.512867
0.565804
0.615137
0.639589
0.00119762
0.00120139
0.00120898
0.00122017
0.00123492
0.00125332
0.00127551
0.00130165
0.00133186
0.00136634
0.00140527
0.00144889
0.00149746
0.00155126
0.00161058
0.00167579
0.00174725
0.00182537
0.00191062
0.00200349
0.00210452
0.00221431
0.00233351
0.00246284
0.00260307
0.00275505
0.00291969
0.00309801
0.00329108
0.00350009
0.00372633
0.00397118
0.00423616
0.00452288
0.00483312
0.00516878
0.00553191
0.00592472
0.00634959
0.0068091
0.00730599
0.00784323
0.00842397
0.00905163
0.00972981
0.0104624
0.0112536
0.0121078
0.0130297
0.0140243
0.0150971
0.0162536
0.0175
0.0188427
0.0202886
0.0218448
0.0235192
0.0253202
0.0272564
0.0293372
0.0315729
0.033974
0.0365519
0.0393194
0.0422895
0.0454765
0.0488966
0.0525668
0.0565059
0.0607338
0.0652735
0.0701503
0.0753908
0.0810272
0.0870948
0.0936334
0.100689
0.108312
0.116565
0.12552
0.135257
0.145875
0.157495
0.17026
0.184341
0.199935
0.217302
0.236761
0.258673
0.28348
0.311662
0.34381
0.380458
0.422064
0.468211
0.518297
0.566425
0.609047
0.619326
0.0012254
0.00122951
0.00123748
0.00124902
0.00126414
0.00128297
0.00130565
0.0013323
0.00136307
0.00139814
0.00143771
0.00148201
0.00153129
0.00158585
0.00164598
0.00171204
0.00178439
0.00186347
0.00194971
0.00204364
0.00214578
0.00225676
0.00237721
0.00250786
0.0026495
0.00280297
0.00296922
0.00314923
0.00334413
0.0035551
0.00378345
0.00403056
0.00429798
0.00458734
0.00490043
0.00523917
0.00560565
0.00600209
0.0064309
0.00689469
0.00739624
0.00793853
0.00852478
0.00915842
0.00984313
0.0105828
0.0113817
0.0122443
0.0131753
0.0141799
0.0152634
0.0164316
0.0176908
0.0190472
0.0205082
0.0220809
0.0237733
0.0255938
0.0275511
0.029655
0.0319157
0.0343444
0.0369525
0.039753
0.0427591
0.0459856
0.0494491
0.0531666
0.0571572
0.0614424
0.0660455
0.070992
0.0763095
0.0820307
0.0881926
0.0948362
0.102008
0.109761
0.118157
0.127273
0.137192
0.148015
0.159868
0.172895
0.187266
0.20319
0.220926
0.240793
0.263134
0.28838
0.316999
0.34948
0.386194
0.427376
0.472038
0.519119
0.561202
0.597265
0.59209
0.00125238
0.00125681
0.00126514
0.00127699
0.00129245
0.00131169
0.00133481
0.00136193
0.0013932
0.00142881
0.00146896
0.00151387
0.0015638
0.00161904
0.00167989
0.0017467
0.00181986
0.00189976
0.00198689
0.00208173
0.00218485
0.00229684
0.00241838
0.00255017
0.00269301
0.00284776
0.00301536
0.00319682
0.00339327
0.0036059
0.00383602
0.00408505
0.00435452
0.00464611
0.00496162
0.00530298
0.00567229
0.00607182
0.006504
0.00697146
0.007477
0.00802366
0.00861466
0.0092535
0.00994388
0.0106898
0.0114954
0.0123654
0.0133045
0.0143178
0.015411
0.0165898
0.0178603
0.0192294
0.0207039
0.0222916
0.0240001
0.0258383
0.0278154
0.0299406
0.0322247
0.0346788
0.0373148
0.0401457
0.0431854
0.0464488
0.0499531
0.0537152
0.0577546
0.0620937
0.0667559
0.0717671
0.0771563
0.0829569
0.0892075
0.0959488
0.103228
0.111102
0.119634
0.1289
0.138986
0.149996
0.162055
0.175308
0.18993
0.206134
0.224174
0.24436
0.267013
0.292536
0.321336
0.353827
0.390141
0.430258
0.472614
0.515973
0.551169
0.581077
0.562018
0.00127856
0.00128329
0.00129195
0.00130409
0.00131986
0.00133946
0.00136298
0.00139053
0.00142226
0.00145836
0.00149902
0.00154448
0.00159499
0.00165083
0.00171231
0.00177979
0.00185363
0.00193426
0.00202214
0.00211778
0.00222172
0.00233457
0.00245701
0.00258975
0.00273359
0.00288939
0.00305811
0.00324076
0.00343847
0.00365245
0.00388402
0.0041346
0.00440575
0.00469916
0.00501663
0.00536014
0.00573178
0.00613386
0.00656882
0.00703931
0.00754819
0.00809849
0.0086935
0.00933672
0.0100319
0.0107831
0.0115946
0.0124709
0.013417
0.014438
0.0155395
0.0167276
0.0180084
0.0193886
0.0208753
0.0224764
0.0241997
0.026054
0.0280487
0.0301934
0.0324988
0.0349764
0.0376381
0.0404971
0.0435678
0.0468655
0.0504067
0.0542098
0.0582951
0.0626843
0.0674015
0.0724734
0.0779299
0.0838056
0.0901378
0.0969691
0.104349
0.112334
0.12099
0.130391
0.140628
0.151808
0.164046
0.177495
0.192331
0.208761
0.227026
0.247424
0.27027
0.295912
0.324649
0.356798
0.392268
0.43078
0.470188
0.509399
0.537523
0.56198
0.531165
0.00130393
0.00130895
0.0013179
0.00133029
0.00134636
0.00136629
0.00139017
0.0014181
0.00145024
0.00148677
0.00152789
0.00157383
0.00162484
0.00168121
0.00174324
0.00181129
0.00188572
0.00196696
0.00205548
0.00215176
0.00225638
0.00236994
0.0024931
0.0026266
0.00277124
0.00292787
0.00309746
0.00328103
0.00347972
0.00369474
0.00392742
0.0041792
0.00445165
0.00474645
0.00506545
0.00541061
0.00578407
0.00618813
0.00662528
0.00709818
0.00760971
0.00816294
0.00876118
0.00940797
0.0101071
0.0108627
0.011679
0.0125606
0.0135126
0.0145402
0.0156489
0.0168449
0.0181344
0.0195243
0.0210218
0.0226346
0.0243711
0.0262399
0.0282503
0.0304124
0.0327371
0.035236
0.0379213
0.040806
0.043905
0.0472342
0.05081
0.0546509
0.058778
0.0632134
0.0679812
0.0731098
0.0786288
0.084573
0.0909803
0.0978944
0.105367
0.113454
0.122219
0.13174
0.14211
0.153433
0.165827
0.17944
0.194446
0.211044
0.229463
0.249976
0.272878
0.298456
0.326926
0.358451
0.392684
0.429202
0.465256
0.50019
0.52134
0.540993
0.500314
0.00132849
0.00133377
0.00134298
0.00135561
0.00137193
0.00139216