/*--------------------------------*- C++ -*----------------------------------*\
  =========                 |
  \\      /  F ield         | OpenFOAM: The Open Source CFD Toolbox
   \\    /   O peration     | Website:  https://openfoam.org
    \\  /    A nd           | Version:  9
     \\/     M anipulation  |
\*---------------------------------------------------------------------------*/
FoamFile
{
    format      ascii;
    class       surfaceScalarField;
    location    "2250";
    object      phi;
}
// * * * * * * * * * * * * * * * * * * * * * * * * * * * * * * * * * * * * * //

dimensions      [0 3 -1 0 0 0 0];

internalField   nonuniform List<scalar> 
26626
(
-0.377085
0.169215
-0.366823
-0.34559
0.17533
-0.356216
0.165309
-0.335569
0.155908
-0.316297
0.146991
-0.298124
-0.281121
0.181272
-0.345229
0.17094
-0.325237
0.16116
-0.306516
0.152001
-0.288965
0.143359
-0.272479
-0.256957
0.187042
-0.333896
0.176365
-0.314559
0.166308
-0.29646
0.156838
-0.279495
0.14792
-0.263562
0.139486
-0.248522
-0.234447
0.19257
-0.322218
0.181616
-0.303606
0.171283
-0.286127
0.161537
-0.269749
0.152308
-0.254333
0.143667
-0.239881
0.135474
-0.226254
0.127765
-0.21342
0.120502
-0.201339
0.113646
-0.189953
0.10718
-0.179216
0.101081
-0.169091
0.095324
-0.159539
0.0898987
-0.150531
0.0847775
-0.142027
0.0799466
-0.134012
0.0753888
-0.126442
0.0710868
-0.119306
0.0670337
-0.112574
0.0632052
-0.106214
0.059598
-0.100224
0.0561913
-0.0945649
0.0529781
-0.0892302
0.0499447
-0.0841923
0.0470842
-0.0794445
0.0443896
-0.0749659
0.0418436
-0.0707324
0.0394428
-0.0667476
0.0371769
-0.0629838
0.0350388
-0.0594342
-0.0560815
0.197994
-0.310264
0.186695
-0.292306
0.176051
-0.275483
0.166029
-0.259726
0.156593
-0.244897
0.147675
-0.230963
0.139275
-0.217855
0.131349
-0.205493
0.123882
-0.193871
0.116836
-0.182908
0.110187
-0.172567
0.103919
-0.162823
0.098003
-0.153623
0.0924223
-0.144951
0.0871595
-0.136764
0.082194
-0.129046
0.0775119
-0.121759
0.0730924
-0.114886
0.0689184
-0.1084
0.0649897
-0.102286
0.0612754
-0.0965096
0.0577754
-0.0910649
0.0544725
-0.0859272
0.0513596
-0.0810795
0.0484196
-0.0765045
0.0456421
-0.0721883
0.0430305
-0.0681208
0.0405606
-0.0642777
0.0382324
-0.0606556
0.0360321
-0.0572339
0.0339632
-0.0540125
0.0320048
-0.0509673
-0.0480983
0.00215454
-0.00466186
0.00199286
-0.00441645
0.0018399
-0.00418552
0.00169589
-0.00396892
0.00155985
-0.00376523
0.00143139
-0.0035743
0.00130972
-0.00339566
0.00119516
-0.00322885
0.00108705
-0.00307278
0.000984725
-0.00292831
0.00088816
-0.00279391
0.000796546
-0.00266954
0.000710067
-0.00255569
0.000628398
-0.00245211
0.000551263
-0.00235726
0.000477605
-0.00227346
0.000407943
-0.00219915
0.000341957
-0.00213783
0.000279668
-0.00208586
0.000220213
-0.00205233
0.000164567
-0.00202703
0.000114402
-0.0020276
7.02087e-05
-0.00203701
3.66796e-05
-0.00204626
3.9479e-06
-0.00214793
-0.00175184
0.203142
-0.297964
0.191566
-0.280731
0.180646
-0.264564
0.170382
-0.249462
0.16067
-0.235186
0.151545
-0.221838
0.142904
-0.209213
0.134798
-0.197387
0.127134
-0.186207
0.119901
-0.175675
0.113084
-0.16575
0.10665
-0.156389
0.100582
-0.147555
0.0948561
-0.139225
0.0894552
-0.131363
0.0843584
-0.123949
0.0795519
-0.116953
0.0750185
-0.110353
0.0707408
-0.104122
0.0667017
-0.0982465
0.0628976
-0.0927055
0.0593043
-0.0874716
0.0559149
-0.0825379
0.0527157
-0.0778803
0.0496997
-0.0734884
0.0468565
-0.0693451
0.0441689
-0.0654332
0.0416368
-0.0617456
0.0392464
-0.0582653
0.0369943
-0.0549818
0.0348666
-0.0518848
0.0328599
-0.0489606
0.0309672
-0.0462057
-0.0436028
0.00240793
-0.00473666
0.0022321
-0.00448604
0.00206628
-0.00425063
0.00190959
-0.00402883
0.00176154
-0.00382087
0.00162207
-0.00362576
0.00149011
-0.00344234
0.00136561
-0.00327115
0.00124784
-0.00311107
0.00113676
-0.0029617
0.0010317
-0.00282326
0.000932435
-0.00269464
0.000838745
-0.00257585
0.00075027
-0.00246722
0.000665425
-0.00236727
0.000585692
-0.00227752
0.000510154
-0.00219792
0.000437754
-0.00212675
0.000368932
-0.00206901
0.00030266
-0.00201959
0.000240858
-0.00199053
0.000181508
-0.00196768
0.000128445
-0.00197454
7.88584e-05
-0.00198743
4.12787e-05
-0.00200868
6.48355e-06
-0.00211313
-0.00174535
0.208117
-0.285388
0.196265
-0.268879
0.185103
-0.253402
0.174528
-0.238887
0.164644
-0.225301
0.155243
-0.212437
0.146446
-0.200416
0.138112
-0.189053
0.130258
-0.178353
0.122853
-0.168271
0.115866
-0.158763
0.109273
-0.149796
0.103057
-0.141339
0.097193
-0.133361
0.0916609
-0.125831
0.0864398
-0.118728
0.0815159
-0.112029
0.0768685
-0.105706
0.0724872
-0.0997408
0.0683548
-0.0941141
0.0644505
-0.0888012
0.0607743
-0.0837954
0.0573021
-0.0790657
0.0540269
-0.0746051
0.0509348
-0.0703964
0.0480191
-0.0664294
0.0452693
-0.0626833
0.042675
-0.0591513
0.0402258
-0.0558162
0.0379184
-0.0526744
0.0357354
-0.0497018
0.0336803
-0.0469055
0.0317393
-0.0442646
0.0299122
-0.0417758
0.0281855
-0.0394217
-0.0372059
0.00267923
-0.00480037
0.00248825
-0.00454569
0.00230841
-0.00430619
0.0021384
-0.00408061
0.00197799
-0.00386842
0.00182658
-0.00366947
0.00168335
-0.00348252
0.0015486
-0.0033076
0.00142094
-0.0031435
0.0013007
-0.00299083
0.0011865
-0.0028475
0.00107912
-0.00271588
0.00097681
-0.00259233
0.000880571
-0.00247961
0.000789604
-0.00237625
0.000703574
-0.00228124
0.000621492
-0.00219544
0.00054351
-0.00211994
0.000468636
-0.00205188
0.000397189
-0.00199756
0.000329043
-0.00195144
0.000263082
-0.00192457
0.000201324
-0.00190592
0.00014312
-0.00191634
8.91747e-05
-0.00193348
4.85279e-05
-0.00196803
6.92594e-06
-0.00207153
-0.00173843
0.21285
-0.272501
0.200722
-0.256751
0.189318
-0.241999
0.178571
-0.22814
0.168376
-0.215106
0.158836
-0.202898
0.149798
-0.191378
0.141281
-0.180536
0.133251
-0.170323
0.125673
-0.160693
0.118531
-0.151621
0.11179
-0.143055
0.105432
-0.134981
0.0994297
-0.127359
0.0937733
-0.120174
0.0884348
-0.11339
0.0833969
-0.106991
0.0786459
-0.100955
0.0741645
-0.0952594
0.0699353
-0.0898849
0.0659447
-0.0848106
0.0621787
-0.0800294
0.058627
-0.075514
0.0552792
-0.0712573
0.0521181
-0.0672353
0.0491367
-0.063448
0.0463247
-0.0598713
0.0436682
-0.0564948
0.0411672
-0.0533152
0.0388011
-0.0503082
0.0365766
-0.0474774
0.0344731
-0.044802
0.0324871
-0.0422786
0.0306152
-0.0399038
0.0288503
-0.0376569
0.0271823
-0.0355378
-0.0335432
0.00449428
-0.00676743
0.00420184
-0.00639943
0.00392544
-0.00605212
0.00366526
-0.00572531
0.00341913
-0.00541635
0.00318767
-0.00512612
0.00296881
-0.00485204
0.00276213
-0.00459369
0.00256694
-0.0043505
0.00238285
-0.00412211
0.00220914
-0.00390691
0.00204535
-0.00370462
0.00189052
-0.00351464
0.00174428
-0.00333628
0.0016058
-0.00316911
0.00147535
-0.00301305
0.00135207
-0.00286754
0.0012362
-0.00273164
0.00112544
-0.00260512
0.0010217
-0.00248858
0.000923109
-0.00238102
0.000829275
-0.00228242
0.000740875
-0.00219284
0.000656381
-0.00211095
0.000576073
-0.00203963
0.000500398
-0.0019762
0.000426477
-0.00192364
0.000355693
-0.00188066
0.00028785
-0.00185672
0.000221715
-0.00183979
0.000159634
-0.00185425
0.000101381
-0.00187523
5.37902e-05
-0.00192044
9.20363e-06
-0.00202694
-0.00172923
0.217445
-0.259372
0.20504
-0.244347
0.193361
-0.230319
0.182371
-0.21715
0.17201
-0.204745
0.162226
-0.193113
0.153005
-0.182156
0.144308
-0.171839
0.136109
-0.162124
0.128373
-0.152957
0.121075
-0.144323
0.114192
-0.136172
0.107696
-0.128485
0.101573
-0.121236
0.0957889
-0.11439
0.0903399
-0.107941
0.085195
-0.101846
0.0803438
-0.0961034
0.0757622
-0.0906778
0.0714433
-0.085566
0.0673697
-0.080737
0.0635243
-0.076184
0.0599001
-0.0718897
0.0564763
-0.0678335
0.0532495
-0.0640085
0.0502025
-0.060401
0.0473283
-0.0569971
0.0446199
-0.0537865
0.0420602
-0.0507555
0.0396491
-0.0478971
0.0373728
-0.0452011
0.0352244
-0.0426536
0.0332004
-0.0402546
0.031287
-0.0379904
0.0294841
-0.035854
0.0277849
-0.0338386
0.0261756
-0.0319338
0.024663
-0.0301431
-0.0284492
0.00492735
-0.0068224
0.00461097
-0.00645105
0.00431262
-0.00610108
0.00403106
-0.00577056
0.00376515
-0.00545939
0.00351424
-0.00516544
0.00327729
-0.00488917
0.00305359
-0.00462833
0.00284292
-0.00438303
0.00264407
-0.00415165
0.002456
-0.00393403
0.0022784
-0.00372931
0.00211108
-0.00353731
0.00195259
-0.00335615
0.00180357
-0.00318725
0.00166268
-0.00302822
0.00152981
-0.00288019
0.00140346
-0.00274119
0.00128422
-0.00261239
0.00117191
-0.00249282
0.00106579
-0.00238246
0.000964985
-0.00228022
0.000869458
-0.00218689
0.000778316
-0.0021017
0.000693071
-0.0020257
0.000610598
-0.00195716
0.000531909
-0.00189752
0.000456582
-0.00184831
0.000384401
-0.00180848
0.000312877
-0.0017852
0.000242477
-0.00176939
0.000177967
-0.00178975
0.000114072
-0.00181133
6.32587e-05
-0.00186963
1.03929e-05
-0.00197408
-0.00171883
0.221729
-0.245967
0.209117
-0.231736
0.19723
-0.218432
0.185996
-0.205916
0.175431
-0.19418
0.16546
-0.183143
0.156059
-0.172755
0.147194
-0.162973
0.138829
-0.153759
0.13094
-0.145069
0.123498
-0.136881
0.116477
-0.12915
0.109853
-0.121861
0.103606
-0.114989
0.0977146
-0.108499
0.0921516
-0.102378
0.0869066
-0.0966012
0.0819553
-0.0911521
0.0772873
-0.0860099
0.0728821
-0.0811607
0.0687256
-0.0765806
0.0648076
-0.072266
0.0611074
-0.0681895
0.057618
-0.0643441
0.0543256
-0.0607161
0.0512198
-0.0572952
0.0482903
-0.0540676
0.0455267
-0.0510229
0.0429186
-0.0481474
0.0404557
-0.0454342
0.0381345
-0.0428799
0.0359446
-0.0404637
0.0338791
-0.0381891
0.0319276
-0.0360389
0.0300902
-0.0340166
0.028353
-0.0321014
0.0267195
-0.0303003
0.0251723
-0.0285959
0.023715
-0.0269918
0.0223406
-0.0254777
-0.0240499
0.00742832
-0.00908623
0.00697195
-0.00858655
0.00654112
-0.00811482
0.00613451
-0.00766973
0.00575073
-0.00724997
0.00538837
-0.00685407
0.00504704
-0.00648108
0.00472457
-0.00612857
0.00442
-0.00579651
0.00413273
-0.00548329
0.00386151
-0.00518817
0.00360582
-0.00490976
0.00336459
-0.00464794
0.00313676
-0.00440051
0.00292144
-0.0041677
0.00271842
-0.00394863
0.00252715
-0.00374276
0.00234623
-0.0035484
0.00217527
-0.00336635
0.00201445
-0.00319533
0.00186185
-0.00303465
0.00171822
-0.0028846
0.00158222
-0.00274418
0.00145392
-0.0026129
0.00133272
-0.00249118
0.00121777
-0.00237787
0.00110901
-0.00227369
0.001006
-0.00217721
0.000908984
-0.00208987
0.000816394
-0.00200911
0.000728378
-0.00193769
0.000644607
-0.00187338
0.00056386
-0.00181677
0.000487335
-0.00177179
0.00041092
-0.00173206
0.000337919
-0.0017122
0.000267068
-0.00169854
0.000196716
-0.00171939
0.000127293
-0.00174191
7.19873e-05
-0.00181432
1.19641e-05
-0.00191406
-0.00170687
0.22584
-0.23232
0.212986
-0.218882
0.200868
-0.206314
0.189451
-0.194499
0.178686
-0.183415
0.168532
-0.172989
0.158959
-0.163182
0.149927
-0.153942
0.14141
-0.145243
0.133377
-0.137035
0.125796
-0.1293
0.118648
-0.122002
0.111903
-0.115117
0.105538
-0.108624
0.0995332
-0.102494
0.0938701
-0.0967146
0.0885283
-0.0912595
0.0834907
-0.0861145
0.0787364
-0.0812556
0.0742482
-0.0766726
0.0700158
-0.0723481
0.0660219
-0.0682721
0.0622525
-0.0644202
0.058701
-0.0607925
0.0553498
-0.057365
0.0521853
-0.0541307
0.0492005
-0.0510828
0.0463851
-0.0482075
0.0437286
-0.0454909
0.0412243
-0.0429298
0.0388581
-0.0405137
0.0366302
-0.0382358
0.0345232
-0.0360822
0.0325407
-0.0340564
0.0306652
-0.0321412
0.0288969
-0.0303331
0.0272288
-0.0286322
0.0256574
-0.0270246
0.0241724
-0.0255069
0.0227738
-0.024079
0.0214512
-0.0227273
0.0202046
-0.0214551
0.0190281
-0.0202545
0.0179182
-0.0191213
-0.0180525
0.00758668
-0.00859392
0.00712164
-0.00812151
0.00668289
-0.00767607
0.00626911
-0.00725595
0.0058784
-0.00685926
0.00550987
-0.00648555
0.00516146
-0.00613267
0.00483302
-0.00580013
0.00452327
-0.00548676
0.00423092
-0.00519094
0.00395482
-0.00491206
0.0036947
-0.00464964
0.00344837
-0.00440161
0.00321643
-0.00416856
0.00299766
-0.00394893
0.00279097
-0.00374195
0.00259553
-0.00354731
0.00241163
-0.00336451
0.00223803
-0.00319274
0.00207371
-0.00303101
0.00191871
-0.00287964
0.0017724
-0.0027383
0.00163388
-0.00260566
0.00150327
-0.00248229
0.00137948
-0.00236739
0.00126282
-0.00226122
0.00115201
-0.00216288
0.00104755
-0.00207275
0.000947471
-0.00198979
0.000853535
-0.00191517
0.000763608
-0.00184776
0.000677872
-0.00178765
0.000596842
-0.00173574
0.000516576
-0.00169152
0.000441062
-0.00165655
0.000364933
-0.00163607
0.000290413
-0.00162402
0.000216918
-0.0016459
0.000145034
-0.00167002
8.09208e-05
-0.00175021
1.7782e-05
-0.00185092
-0.00168909
0.229744
-0.218466
0.216656
-0.205794
0.204323
-0.193982
0.192709
-0.182884
0.181758
-0.172464
0.171435
-0.162666
0.161695
-0.153442
0.152512
-0.144759
0.143847
-0.136577
0.135675
-0.128864
0.127967
-0.121591
0.120694
-0.114729
0.113835
-0.108258
0.107364
-0.102153
0.101258
-0.0963884
0.0954986
-0.0909548
0.0900636
-0.0858245
0.0849362
-0.080987
0.0800991
-0.0764185
0.0755384
-0.0721119
0.0712334
-0.0680432
0.0671704
-0.064209
0.0633423
-0.0605921
0.0597251
-0.0571753
0.0563153
-0.0539551
0.0530989
-0.0509144
0.0500623
-0.0480462
0.0471985
-0.0453437
0.0444972
-0.0427896
0.0419479
-0.0403805
0.0395437
-0.0381095
0.0372743
-0.0359664
0.0351362
-0.0339441
0.0331157
-0.0320358
0.0312091
-0.0302346
0.0294131
-0.0285371
0.0277174
-0.0269364
0.0261149
-0.0254221
0.0246092
-0.0240011
0.0231829
-0.0226528
0.0218385
-0.0213829
0.0205704
-0.020187
0.0193739
-0.0190579
0.0182447
-0.0179921
0.0171797
-0.0169875
0.0161749
-0.0160393
-0.0151447
0.00773769
-0.00809297
0.00726475
-0.00764857
0.00681842
-0.00722974
0.00639731
-0.00683484
0.0060001
-0.00646205
0.00562507
-0.00611052
0.00527141
-0.005779
0.00493746
-0.00546619
0.00462197
-0.00517126
0.00432476
-0.00489374
0.00404411
-0.00463142
0.00377909
-0.00438462
0.00352932
-0.00415185
0.00329326
-0.0039325
0.00307069
-0.00372636
0.00286058
-0.00353184
0.00266232
-0.00334905
0.00247503
-0.00317722
0.00229788
-0.00301559
0.00213116
-0.00286429
0.00197373
-0.00272222
0.00182464
-0.0025892
0.00168409
-0.00246511
0.0015513
-0.0023495
0.00142545
-0.00224154
0.00130637
-0.00214214
0.00119409
-0.0020506
0.00108728
-0.00196595
0.000986458
-0.00188897
0.000890142
-0.00181885
0.000799121
-0.00175674
0.000711717
-0.00170024
0.000628019
-0.00165204
0.000547772
-0.00161128
0.000469467
-0.00157824
0.000392526
-0.00155913
0.000315856
-0.00154735
0.000239814
-0.00156986
0.000161502
-0.00159171
9.43068e-05
-0.00168301
1.98016e-05
-0.00177641
-0.00166928
0.233351
-0.204349
0.220083
-0.192526
0.207567
-0.181466
0.19577
-0.171087
0.18465
-0.161343
0.174158
-0.152174
0.16427
-0.143554
0.154941
-0.13543
0.146141
-0.127777
0.137839
-0.120562
0.13001
-0.113762
0.122623
-0.107341
0.115654
-0.101289
0.109078
-0.0955776
0.10288
-0.0901899
0.0970269
-0.0851018
0.0915091
-0.0803066
0.0862988
-0.0757767
0.0813891
-0.0715088
0.0767524
-0.0674752
0.0723784
-0.0636692
0.0682532
-0.0600838
0.0643596
-0.0566985
0.0606905
-0.0535063
0.0572254
-0.05049
0.0539573
-0.0476462
0.0508757
-0.0449647
0.0479636
-0.0424315
0.0452207
-0.0400467
0.0426334
-0.0377932
0.0401878
-0.0356639
0.0378838
-0.0336624
0.0357078
-0.031768
0.0336561
-0.0299841
0.0317219
-0.0283004
0.0298983
-0.0267135
0.0281748
-0.025213
0.0265516
-0.0237989
0.0250148
-0.0224643
0.0235674
-0.0212054
0.0222036
-0.0200191
0.0209155
-0.0188989
0.0197003
-0.0178427
0.0185538
-0.0168456
0.0174716
-0.0159053
0.0164505
-0.0150182
0.0154874
-0.0141817
0.0145782
-0.0133918
0.0137208
-0.0126476
0.0129114
-0.0119447
0.0121479
-0.0112825
0.0114273
-0.010657
0.0107475
-0.0100676
0.0101056
-0.00951093
0.00949993
-0.00898645
0.00892856
-0.00849149
0.00838924
-0.00802445
0.0078804
-0.00758413
0.00740025
-0.00716841
0.00694738
-0.00677688
0.00651938
-0.00640684
0.00611603
-0.00605871
0.00573501
-0.00572949
0.00537552
-0.00541951
0.00503653
-0.0051272
0.00471654
-0.00485127
0.0044145
-0.00459169
0.00412946
-0.00434638
0.00386038
-0.00411554
0.00360655
-0.00389801
0.00336709
-0.00369304
0.00314059
-0.00349986
0.00292717
-0.00331842
0.00272578
-0.00314765
0.00253576
-0.0029872
0.00235611
-0.00283594
0.00218658
-0.00269477
0.00202638
-0.00256201
0.00187526
-0.00243809
0.00173257
-0.00232242
0.00159741
-0.00221434
0.00146999
-0.00211411
0.00134911
-0.00202126
0.0012346
-0.00193609
0.001126
-0.00185735
0.00102343
-0.0017864
0.000926028
-0.00172145
0.000832698
-0.00166341
0.000744235
-0.00161178
0.00065891
-0.00156671
0.000577828
-0.0015302
0.000497854
-0.00149827
0.000420333
-0.00148161
0.000341887
-0.0014689
0.000262386
-0.00149035
0.000182524
-0.00151185
0.000106483
-0.00160697
2.75515e-05
-0.00169748
-0.00164173
0.236774
-0.190039
0.223303
-0.179055
0.210604
-0.168768
0.198638
-0.159121
0.187348
-0.150054
0.176711
-0.141537
0.166675
-0.133518
0.157212
-0.125967
0.148284
-0.11885
0.139864
-0.112142
0.131918
-0.105816
0.124427
-0.0998508
0.117358
-0.09422
0.11069
-0.0889092
0.104394
-0.0838947
0.0984584
-0.0791659
0.0928577
-0.0747059
0.0875749
-0.0704939
0.0825893
-0.0665232
0.077887
-0.0627729
0.0734543
-0.0592364
0.0692669
-0.0558964
0.065318
-0.0527495
0.0615902
-0.0497785
0.0580768
-0.0469765
0.0547637
-0.0443332
0.0516338
-0.0418348
0.0486837
-0.0394813
0.0458994
-0.0372624
0.0432706
-0.0351644
0.0407938
-0.0331872
0.0384553
-0.0313239
0.0362516
-0.0295643
0.0341688
-0.0279013
0.032207
-0.0263386
0.0303522
-0.0248588
0.0286046
-0.0234654
0.0269538
-0.022148
0.0253986
-0.0209091
0.0239315
-0.0197383
0.0225463
-0.0186339
0.0212399
-0.0175925
0.0200063
-0.0166091
0.0188433
-0.0156825
0.0177455
-0.0148075
0.0167098
-0.0139826
0.0157322
-0.0132041
0.0148106
-0.0124702
0.0139401
-0.0117771
0.0131193
-0.0111239
0.0123444
-0.0105076
0.0116135
-0.00992603
0.0109235
-0.00937762
0.0102727
-0.00886007
0.00965846
-0.00837225
0.00907878
-0.00791181
0.00853159
-0.00747726
0.00801549
-0.00706803
0.0075284
-0.00668133
0.00706866
-0.00631713
0.00663488
-0.00597305
0.00622523
-0.00564906
0.00583918
-0.00534344
0.00547457
-0.0050549
0.00513033
-0.00478297
0.00480587
-0.0045268
0.00449933
-0.00428515
0.00421024
-0.00405729
0.00393731
-0.00384261
0.00367979
-0.0036405
0.00343673
-0.00344998
0.00320747
-0.0032706
0.00299095
-0.0031019
0.00278662
-0.00294332
0.00259358
-0.00279416
0.00241171
-0.00265406
0.0022397
-0.00252276
0.00207722
-0.00239953
0.00192379
-0.00228466
0.00177877
-0.0021774
0.00164175
-0.00207733
0.00151215
-0.0019845
0.00138985
-0.00189897
0.00127366
-0.00181991
0.00116393
-0.00174761
0.00105931
-0.00168178
0.000960311
-0.00162246
0.000866038
-0.00156914
0.000776752
-0.0015225
0.000690781
-0.00148074
0.00060739
-0.0014468
0.000525909
-0.00141679
0.000446881
-0.00140258
0.000368037
-0.00139006
0.000288442
-0.00141076
0.000201581
-0.00142499
0.000121558
-0.00152695
3.20467e-05
-0.00160797
-0.00160969
0.239942
-0.175546
0.226291
-0.165404
0.213427
-0.155904
0.201298
-0.146992
0.189867
-0.138622
0.179085
-0.130754
0.168917
-0.123351
0.159323
-0.116373
0.150278
-0.109805
0.141748
-0.103611
0.133698
-0.0977654
0.126104
-0.0922566
0.118938
-0.0870541
0.11218
-0.0821511
0.105805
-0.07752
0.0997932
-0.0731541
0.0941165
-0.0690292
0.0887646
-0.0651421
0.08371
-0.0614685
0.0789455
-0.0580085
0.0744506
-0.0547416
0.0702115
-0.0516573
0.0662107
-0.0487488
0.0624346
-0.0460024
0.0588728
-0.0434147
0.0555114
-0.0409718
0.0523435
-0.0386669
0.0493519
-0.0364897
0.0465296
-0.0344401
0.0438663
-0.0325011
0.0413584
-0.0306793
0.0389888
-0.0289543
0.0367505
-0.027326
0.0346435
-0.0257944
0.0326506
-0.0243456
0.0307751
-0.0229833
0.0290033
-0.0216936
0.0273341
-0.0204788
0.0257572
-0.0193322
0.0242697
-0.0182508
0.0228665
-0.0172307
0.0215421
-0.0162681
0.0202927
-0.0153597
0.0191137
-0.0145036
0.0180014
-0.0136952
0.0169519
-0.0129331
0.0159619
-0.012214
0.0150271
-0.0115354
0.0141455
-0.0108955
0.0133137
-0.010292
0.0125285
-0.00972243
0.0117878
-0.00918535
0.0110886
-0.00867844
0.0104291
-0.00820059
0.00980662
-0.00774975
0.00921897
-0.00732416
0.00866522
-0.00692351
0.00814187
-0.00654468
0.00764827
-0.00618773
0.00718234
-0.00585121
0.00674297
-0.00553368
0.00632822
-0.00523431
0.00593662
-0.00495185
0.00556746
-0.00468574
0.00521887
-0.00443437
0.00488982
-0.00419776
0.00457959
-0.00397491
0.00428655
-0.00376425
0.00401023
-0.00356629
0.00374927
-0.00337954
0.00350301
-0.00320372
0.00327067
-0.00303827
0.00305107
-0.00288229
0.00284431
-0.00273656
0.00264865
-0.00259851
0.00246407
-0.00246948
0.00228981
-0.0023485
0.00212555
-0.00223527
0.00196991
-0.00212903
0.00182312
-0.0020306
0.00168433
-0.00193854
0.00155309
-0.00185326
0.00142884
-0.00177472
0.00131111
-0.00170217
0.00119989
-0.00163639
0.00109428
-0.00157617
0.000993876
-0.00152205
0.000898226
-0.00147349
0.000806863
-0.00143113
0.000719393
-0.00139327
0.000635345
-0.00136276
0.000554387
-0.00133583
0.000474093
-0.00132228
0.000392645
-0.00130861
0.000311819
-0.00132993
0.000224556
-0.00133773
0.000138363
-0.00144076
3.9311e-05
-0.00150892
-0.00157038
0.242872
-0.160876
0.229055
-0.151587
0.216032
-0.142881
0.203758
-0.134718
0.192189
-0.127053
0.181276
-0.119841
0.170984
-0.113059
0.161279
-0.106669
0.152124
-0.100649
0.143486
-0.0949741
0.13534
-0.0896186
0.127652
-0.0845693
0.120404
-0.0798055
0.113563
-0.0753101
0.107109
-0.071066
0.101021
-0.0670663
0.0952785
-0.063287
0.0898576
-0.0597211
0.0847476
-0.0563585
0.0799245
-0.0531854
0.0753709
-0.050188
0.07108
-0.0473663
0.0670274
-0.0446963
0.0632099
-0.0421849
0.0596066
-0.0398114
0.0562038
-0.0375689
0.0529944
-0.0354576
0.0499683
-0.0334635
0.0471114
-0.0315833
0.0444204
-0.0298101
0.041878
-0.028137
0.0394773
-0.0265536
0.0372183
-0.025067
0.0350837
-0.0236597
0.03307
-0.022332
0.0311683
-0.0210816
0.029376
-0.0199013
0.0276844
-0.0187871
0.0260888
-0.0177365
0.0245833
-0.0167454
0.0231625
-0.0158099
0.0218222
-0.0149278
0.0205579
-0.0140954
0.0193644
-0.0133101
0.0182389
-0.0125697
0.0171763
-0.0118705
0.0161738
-0.0112115
0.0152284
-0.0105899
0.0143361
-0.0100032
0.0134939
-0.00944981
0.0126993
-0.00892787
0.0119494
-0.00843539
0.0112422
-0.00797128
0.0105744
-0.00753283
0.00994433
-0.00711965
0.00935015
-0.00672997
0.00878882
-0.00636219
0.00825966
-0.00601552
0.00776017
-0.00568824
0.00728903
-0.00538006
0.00684422
-0.00508887
0.00642422
-0.00481431
0.00602819
-0.00455582
0.00565427
-0.00431181
0.00530146
-0.00408157
0.00496874
-0.00386504
0.00465437
-0.00366055
0.00435799
-0.00346786
0.00407785
-0.00328616
0.00381405
-0.00311574
0.00356474
-0.00295441
0.00332953
-0.00280305
0.00310768
-0.00266044
0.00289788
-0.00252676
0.00270027
-0.0024009
0.00251363
-0.00228285
0.00233724
-0.0021721
0.00217061
-0.00206864
0.00201348
-0.00197189
0.00186471
-0.00188183
0.00172401
-0.00179785
0.00159121
-0.00172046
0.00146545
-0.00164896
0.00134666
-0.00158339
0.00123359
-0.00152332
0.00112663
-0.00146921
0.00102486
-0.00142027
0.000928434
-0.00137707
0.000835758
-0.00133846
0.000747661
-0.00130518
0.000662268
-0.00127736
0.000579924
-0.00125349
0.000499312
-0.00124167
0.000419086
-0.00122838
0.000337795
-0.00124864
0.000247605
-0.00124753
0.000156713
-0.00134987
4.75787e-05
-0.00139978
-0.0015228
0.24556
-0.146051
0.231588
-0.137614
0.218426
-0.12972
0.206018
-0.12231
0.194317
-0.115352
0.183287
-0.10881
0.172881
-0.102653
0.163069
-0.0968569
0.153814
-0.0913938
0.14508
-0.0862401
0.136847
-0.0813855
0.129076
-0.076799
0.121745
-0.072474
0.114828
-0.0683932
0.108305
-0.0645429
0.102148
-0.0609095
0.0963403
-0.0574791
0.0908641
-0.054245
0.0856955
-0.0511899
0.0808171
-0.048307
0.0762221
-0.0455929
0.0718793
-0.0430235
0.0677854
-0.0406023
0.0639229
-0.0383225
0.0602747
-0.0361632
0.0568408
-0.034135
0.0535969
-0.0322137
0.0505362
-0.0304028
0.0476517
-0.0286988
0.0449262
-0.0270846
0.0423527
-0.0255635
0.0399313
-0.0241322
0.0376412
-0.0227768
0.0354858
-0.0215044
0.0334496
-0.0202958
0.0315289
-0.0191608
0.0297163
-0.0180887
0.0280066
-0.0170775
0.0263934
-0.0161233
0.024871
-0.015223
0.0234346
-0.0143736
0.0220798
-0.0135729
0.0208013
-0.0128169
0.019595
-0.0121038
0.0184568
-0.0114315
0.0173831
-0.0107969
0.0163696
-0.010198
0.0154134
-0.00963371
0.014511
-0.00910091
0.0136599
-0.00859863
0.0128567
-0.00812469
0.0120988
-0.00767747
0.0113833
-0.00725586
0.0107087
-0.00685817
0.010072
-0.00648292
0.00947095
-0.00612896
0.00890372
-0.00579496
0.00836868
-0.00548048
0.00786371
-0.00518328
0.00738675
-0.00490309
0.00693705
-0.00463918
0.00651305
-0.00439031
0.00611245
-0.00415522
0.00573443
-0.00393379
0.00537778
-0.00372491
0.00504128
-0.00352854
0.00472346
-0.00334273
0.00442361
-0.00316801
0.00414111
-0.00300366
0.00387415
-0.00284877
0.00362213
-0.00270239
0.00338439
-0.00256532
0.00316017
-0.00243622
0.0029483
-0.00231489
0.00274821
-0.00220081
0.00255945
-0.00209408
0.00238125
-0.00199391
0.00221293
-0.00190032
0.00205392
-0.00181288
0.0019036
-0.00173151
0.00176177
-0.00165602
0.00162725
-0.00158594
0.00150019
-0.00152189
0.00137974
-0.00146294
0.00126586
-0.00140945
0.00115765
-0.001361
0.0010547
-0.00131733
0.000956498
-0.00127886
0.000863188
-0.00124515
0.000773857
-0.00121585
0.000688001
-0.00119151
0.000605276
-0.00117076
0.000523332
-0.00115973
0.000441767
-0.00114682
0.000360924
-0.0011678
0.000269778
-0.00115639
0.000182007
-0.0012621
5.73835e-05
-0.00127516
-0.00146541
0.247992
-0.131078
0.233888
-0.123511
0.220593
-0.116424
0.208063
-0.10978
0.196249
-0.103538
0.185108
-0.0976693
0.174605
-0.092151
0.164694
-0.0869452
0.155345
-0.082045
0.146531
-0.0774267
0.138209
-0.0730626
0.130362
-0.0689528
0.122962
-0.0650735
0.115979
-0.0614107
0.109391
-0.0579543
0.103175
-0.054694
0.0973087
-0.0516126
0.0917773
-0.0487136
0.0865569
-0.0459695
0.0816337
-0.0433838
0.0769868
-0.0409461
0.0726061
-0.0386428
0.0684707
-0.0364669
0.0645703
-0.034422
0.060891
-0.0324839
0.0574156
-0.0306596
0.0541407
-0.0289387
0.0510523
-0.0273144
0.0481333
-0.0257798
0.0453836
-0.0243348
0.0427928
-0.0229727
0.0403437
-0.0216831
0.0380336
-0.0204667
0.0358513
-0.019322
0.0337964
-0.018241
0.0318563
-0.0172207
0.0300261
-0.0162585
0.0282992
-0.0153506
0.02667
-0.0144941
0.0251328
-0.0136858
0.0236829
-0.0129237
0.0223142
-0.0122043
0.021023
-0.0115256
0.0198052
-0.0108861
0.0186556
-0.0102818
0.0175709
-0.00971217
0.016548
-0.00917511
0.0155821
-0.00866784
0.0146712
-0.00818994
0.0138113
-0.0077388
0.0130002
-0.00731358
0.0122347
-0.00691191
0.0115127
-0.00653386
0.0108307
-0.00617622
0.0101876
-0.00583978
0.00958059
-0.00552196
0.00900824
-0.00522261
0.00846763
-0.00493987
0.00795781
-0.00467346
0.00747672
-0.004422
0.00702263
-0.00418509
0.00659373
-0.00396141
0.0061894
-0.00375089
0.00580789
-0.00355228
0.0054479
-0.00336492
0.00510788
-0.00318852
0.0047873
-0.00302214
0.00448477
-0.00286548
0.00419915
-0.00271804
0.00392933
-0.00257895
0.00367511
-0.00244817
0.00343502
-0.00232523
0.00320838
-0.00220959
0.00299431
-0.00210082
0.00279256
-0.00199905
0.00260192
-0.00190344
0.00242187
-0.00181385
0.0022518
-0.00173025
0.00209131
-0.0016524
0.00193964
-0.00157983
0.00179619
-0.00151258
0.00166073
-0.00145048
0.00153211
-0.00139328
0.0014105
-0.00134132
0.00129503
-0.00129398
0.00118567
-0.00125164
0.00108208
-0.00121373
0.000983332
-0.00118011
0.000888956
-0.00115077
0.000798519
-0.00112541
0.000711433
-0.00110442
0.00062735
-0.00108668
0.000545847
-0.00107822
0.000464234
-0.00106521
0.000383269
-0.00108684
0.000295254
-0.00106837
0.000206362
-0.0011732
7.53795e-05
-0.00114418
-0.00139003
0.250179
-0.115969
0.235951
-0.109283
0.222541
-0.103014
0.209902
-0.0971405
0.197983
-0.0916196
0.186749
-0.0864349
0.176147
-0.0815486
0.166152
-0.0769506
0.156724
-0.0726169
0.147828
-0.0685305
0.139439
-0.0646741
0.131524
-0.0610377
0.124054
-0.0576039
0.11701
-0.0543661
0.110363
-0.051307
0.104092
-0.0484233
0.0981804
-0.0457012
0.0925972
-0.0431304
0.0873319
-0.0407042
0.0823672
-0.0384191
0.077679
-0.0362579
0.0732568
-0.0342206
0.0690869
-0.032297
0.0651519
-0.0304871
0.0614381
-0.0287701
0.0579386
-0.0271601
0.0546326
-0.0256327
0.0515131
-0.024195
0.0485734
-0.02284
0.0457995
-0.0215609
0.0431793
-0.0203526
0.0407092
-0.0192129
0.0383807
-0.0181382
0.0361821
-0.0171235
0.034108
-0.0161668
0.0321513
-0.015264
0.0303048
-0.014412
0.028563
-0.0136088
0.0269193
-0.0128505
0.0253689
-0.0121354
0.0239056
-0.0114604
0.0225252
-0.0108238
0.0212228
-0.0102233
0.0199937
-0.00965693
0.0188344
-0.00912249
0.0177403
-0.00861813
0.0167077
-0.00814255
0.0157343
-0.00769435
0.014815
-0.0072707
0.0139479
-0.00687168
0.0131295
-0.00649519
0.0123575
-0.00613987
0.0116285
-0.00580494
0.0109415
-0.00548915
0.0102927
-0.00519102
0.00968059
-0.00490986
0.00910269
-0.00464471
0.00855731
-0.00439449
0.00804299
-0.00415914
0.00755773
-0.00393674
0.00709945
-0.00372681
0.00666744
-0.0035294
0.00625937
-0.00334282
0.00587446
-0.00316737
0.00551132
-0.00300178
0.00516831
-0.00284552
0.00484497
-0.0026988
0.00453965
-0.00256016
0.00425138
-0.00242977
0.00397953
-0.0023071
0.00372292
-0.00219157
0.00348071
-0.00208302
0.0032521
-0.00198097
0.00303649
-0.00188521
0.00283275
-0.00179532
0.0026404
-0.00171109
0.00245893
-0.00163238
0.00228751
-0.00155883
0.00212524
-0.00149013
0.0019723
-0.00142689
0.00182739
-0.00136767
0.00169075
-0.00131384
0.00156141
-0.00126394
0.00143876
-0.00121867
0.0013223
-0.00117753
0.00121198
-0.00114132
0.00110689
-0.00110864
0.0010071
-0.00108033
0.000911665
-0.00105533
0.000820751
-0.00103449
0.000733999
-0.00101767
0.000648846
-0.00100153
0.000566654
-0.000996031
0.000484888
-0.000983441
0.000403595
-0.00100554
0.000317198
-0.000981975
0.000229602
-0.00108561
9.8451e-05
-0.00101303
-0.00129158
0.252114
-0.100751
0.237775
-0.0949443
0.224262
-0.0895012
0.211525
-0.084404
0.199518
-0.0796117
0.188193
-0.0751107
0.177515
-0.0708702
0.167445
-0.0668801
0.157944
-0.0631163
0.148979
-0.0595652
0.140525
-0.0562201
0.132547
-0.0530604
0.125023
-0.0500791
0.117923
-0.0472662
0.111227
-0.0446113
0.104908
-0.0421042
0.0989449
-0.039738
0.0933203
-0.0375058
0.0880171
-0.035401
0.083011
-0.033413
0.0782882
-0.0315351
0.0738349
-0.0297674
0.069634
-0.028096
0.0656645
-0.0265176
0.0619265
-0.0250322
0.0583959
-0.0236294
0.0550657
-0.0223025
0.0519262
-0.0210555
0.0489623
-0.0198761
0.0461649
-0.0187636
0.0435268
-0.0177145
0.041038
-0.0167241
0.0386894
-0.0157896
0.0364743
-0.0149083
0.0343842
-0.0140767
0.0324123
-0.0132921
0.030552
-0.0125517
0.0287964
-0.0118531
0.0271402
-0.0111943
0.0255774
-0.0105725
0.0241033
-0.00998634
0.0227122
-0.00943269
0.0213998
-0.00891087
0.0201614
-0.00841849
0.018993