/*--------------------------------*- C++ -*----------------------------------*\
  =========                 |
  \\      /  F ield         | OpenFOAM: The Open Source CFD Toolbox
   \\    /   O peration     | Website:  https://openfoam.org
    \\  /    A nd           | Version:  9
     \\/     M anipulation  |
\*---------------------------------------------------------------------------*/
FoamFile
{
    format      ascii;
    class       volScalarField;
    location    "2250";
    object      ReThetat;
}
// * * * * * * * * * * * * * * * * * * * * * * * * * * * * * * * * * * * * * //

dimensions      [0 0 0 0 0 0 0];

internalField   nonuniform List<scalar> 
13446
(
902.145
899.678
1205.45
897.366
1172.37
1451.39
1474.96
1472.26
895.168
1146.14
1447.76
1474.31
1471.77
1471.69
893.024
1128.8
1434.22
1471.72
1471.45
1471.11
1471.8
890.257
1127.7
1391.17
1467.18
1471.41
1470.52
1471.03
1471.72
1478.72
1310.1
1220.97
1188.53
1176.79
1172.44
1170.63
1169.18
1167.4
1165.36
1163.31
1161.4
1159.66
1158.07
1156.63
1155.33
1154.18
1153.2
1152.39
1151.76
1151.32
1151.08
1151.05
886.883
1128.54
1356.04
1467.19
1469.25
1469.52
1470.23
1470.93
1475.32
1346.65
1238.68
1194.48
1178.76
1173.09
1170.84
1169.33
1167.55
1165.45
1163.26
1161.16
1159.22
1157.42
1155.75
1154.2
1152.78
1151.48
1150.33
1149.32
1148.46
1147.76
1147.23
1146.86
1146.68
804.587
795.432
785.563
775.936
767.924
761.266
755.264
749.546
744.003
738.466
733.069
727.888
722.351
716.449
711.196
706.555
701.158
694.835
689.224
684.764
680.515
673.719
639.036
600.3
570.227
558.232
886.418
1142.99
1444.14
1472.7
1469.43
1468.86
1469.42
1470.07
1472.63
1402.86
1263.13
1202.07
1181.37
1174.11
1171.25
1169.54
1167.73
1165.57
1163.26
1160.98
1158.83
1156.81
1154.9
1153.09
1151.38
1149.78
1148.27
1146.87
1145.58
1144.41
1143.35
1142.41
1141.59
1140.87
781.909
774.46
767.284
758.762
751.544
746.168
741.623
737.348
733.164
729.008
724.791
720.734
716.659
711.886
706.845
702.663
698.778
693.739
687.892
683.006
679.173
675.28
669.912
636.804
599.271
569.956
558.209
883.475
1234.6
1448.91
1470.81
1468.72
1468.22
1468.62
1469.21
1469.77
1471.92
1293.45
1212.55
1185.37
1175.78
1171.92
1169.83
1167.91
1165.7
1163.28
1160.85
1158.5
1156.25
1154.09
1152.02
1150.01
1148.09
1146.22
1144.43
1142.7
1141.04
1139.44
1137.9
1136.42
1134.99
1133.57
1132.18
750.991
744.223
740.892
735.464
729.062
725.331
722.811
720.423
718.066
715.603
713.012
710.343
707.793
704.799
700.813
696.852
693.871
690.671
685.968
680.715
676.646
673.43
669.877
665.676
634.408
598.166
569.631
558.185
883.062
1123.27
1437.15
1470.61
1468.52
1467.58
1467.81
1468.3
1468.66
1474.24
1324.85
1229.53
1192.13
1178.42
1172.92
1170.19
1168.09
1165.84
1163.35
1160.76
1158.21
1155.74
1153.34
1150.99
1148.69
1146.44
1144.21
1142.02
1139.85
1137.7
1135.54
1133.39
1131.21
1128.99
1126.69
1124.31
1121.77
782.436
766.696
753.897
741.941
730.737
720.317
710.212
703.219
702.751
703.301
699.43
696.699
697.407
697.523
697.463
697.312
696.76
695.927
695.053
694.115
692.153
689.102
686.536
684.824
682.168
677.823
673.333
670.163
667.542
664.315
661.165
631.777
596.87
569.276
558.161
880.175
1184.01
1445.86
1471.01
1467.52
1466.69
1467
1467.4
1467.73
1471.01
1376.23
1256.44
1202.33
1182.19
1174.2
1170.53
1168.23
1166
1163.48
1160.76
1158
1155.28
1152.63
1150.02
1147.42
1144.84
1142.26
1139.66
1137.03
1134.36
1131.63
1128.79
1125.82
1122.69
1119.37
1115.82
1112
1107.79
1103.1
721.701
705.011
691.566
681.795
672.768
665.149
658.559
652.783
651.42
657.508
661.158
659.209
662.483
667.646
669.882
672.704
675.019
676.527
677.713
678.948
679.669
678.692
676.872
676.015
675.482
673.195
669.316
665.801
663.582
661.508
658.592
656.155
628.902
595.433
568.858
558.139
874.781
1196.87
1449.41
1470.1
1466.69
1465.97
1466.2
1466.51
1466.79
1467.61
1448.98
1293.98
1216.66
1187.19
1175.5
1170.59
1168.2
1166.18
1163.73
1160.87
1157.87
1154.9
1151.99
1149.11
1146.22
1143.3
1140.33
1137.28
1134.15
1130.88
1127.41
1123.69
1119.7
1115.41
1110.78
1105.77
1100.31
1094.19
1087.29
1079.57
1071.04
789.933
769.079
748.78
729.209
710.38
692.376
675.223
659.157
644.138
630.551
618.742
609.064
602.12
598.521
600.74
610.953
615.787
616.495
627.713
635.48
639.644
646.244
650.97
654.737
658.36
662.076
664.36
664.404
664.301
665.367
665.728
663.674
660.507
658.189
656.913
655.314
652.704
650.662
625.817
593.774
568.386
558.116
865.571
1398.22
1467.63
1467.32
1465.49
1465.24
1465.42
1465.61
1465.81
1465.76
1471.69
1334.69
1236.55
1193.48
1176.39
1169.99
1167.79
1166.37
1164.19
1161.19
1157.88
1154.59
1151.4
1148.24
1145.02
1141.67
1138.17
1134.53
1130.71
1126.57
1122
1117.04
1111.69
1105.91
1099.65
1092.86
1085.47
1077.42
1068.68
1059.19
1048.89
1037.71
1025.65
1012.66
998.697
757.692
738.007
718.989
700.736
683.3
666.782
651.313
637.054
624.146
612.686
602.855
594.839
588.64
584.141
580.27
576.85
575.69
578.317
594.607
600.874
607.458
618.273
624.87
631.353
638.092
644.531
648.07
649.404
651.64
654.548
655.35
653.579
651.516
650.563
650.147
648.955
646.657
644.864
622.548
591.898
567.863
558.086
896.728
1138.34
1439.14
1469.51
1465.78
1464.58
1464.61
1464.73
1464.81
1464.78
1467.38
1388.86
1263.08
1200.67
1176.67
1168.55
1166.77
1166.38
1164.81
1161.76
1158.06
1154.33
1150.73
1147.17
1143.43
1139.37
1135.07
1130.52
1125.69
1120.56
1115.08
1109.21
1102.89
1096.09
1088.74
1080.79
1072.19
1062.89
1052.84
1041.99
1030.31
1017.78
1004.38
990.103
974.969
958.986
942.227
732.649
714.028
696.157
679.09
662.905
647.716
633.664
620.903
609.571
599.835
591.932
585.987
581.842
579.16
577.588
576.632
575.737
574.47
571.427
569.616
577.566
590.09
597.305
607.024
617.618
626.333
630.641
634.013
639.114
643.306
644.129
643.016
642.514
642.959
643.263
642.433
640.461
638.76
619.008
589.775
567.258
558.054
974.864
1304
1457.73
1467.06
1464.35
1463.82
1463.85
1463.86
1463.83
1463.76
1463.83
1458.1
1295.09
1209.62
1177.44
1166.87
1165.12
1165.87
1165.25
1162.37
1158.23
1153.78
1149.47
1145.22
1140.85
1136.28
1131.44
1126.32
1120.88
1115.06
1108.85
1102.17
1094.99
1087.26
1078.93
1069.96
1060.28
1049.88
1038.7
1026.72
1013.94
1000.33
985.912
970.687
954.697
937.994
920.623
902.656
884.208
865.352
846.19
826.836
807.396
787.994
768.745
749.762
731.156
713.043
695.543
678.76
662.811
647.826
633.958
621.364
610.204
600.625
592.837
587.045
583.122
580.605
579.038
577.859
576.769
575.702
574.721
574.037
573.569
571.038
567.612
572.474
583.76
598.041
606.928
612.042
618.82
626.709
631.156
631.979
632.259
633.661
635.364
636.225
635.755
634.137
632.505
615.233
587.35
566.608
558.016
1002.81
1444.62
1473.49
1465
1463.12
1463.1
1463.09
1463
1462.87
1462.69
1462.23
1467.82
1326.82
1225.28
1181.7
1166.4
1163.19
1164.25
1164.51
1162.1
1157.78
1152.88
1148.06
1143.34
1138.54
1133.51
1128.17
1122.5
1116.45
1110
1103.09
1095.68
1087.72
1079.17
1069.98
1060.11
1049.51
1038.17
1026.06
1013.18
999.508
985.049
969.833
953.897
937.276
920.033
902.245
883.981
865.337
846.405
827.299
808.116
788.965
769.959
751.2
732.8
714.869
697.516
680.852
665
650.084
636.251
623.672
612.507
602.918
595.07
589.201
585.309
582.87
581.217
579.89
578.691
577.569
576.517
575.518
574.536
573.514
572.802
572.583
570.987
566.348
580.189
585.323
593.184
604.621
613.814
617.526
619.159
621.711
625.036
627.703
629.007
628.946
627.702
626.115
610.973
584.62
565.893
557.975
976.863
1415.02
1464.99
1464.3
1462.85
1462.48
1462.33
1462.15
1461.91
1461.62
1461.17
1463.58
1382.57
1255.56
1192.35
1168.63
1161.49
1160.94
1161.65
1160.55
1157.11
1152.3
1147.07
1141.8
1136.48
1130.97
1125.16
1118.98
1112.38
1105.34
1097.79
1089.72
1081.06
1071.77
1061.82
1051.16
1039.77
1027.65
1014.76
1001.11
986.704
971.566
955.728
939.231
922.137
904.509
886.422
867.964
849.229
830.31
811.311
792.329
773.474
754.849
736.56
718.712
701.413
684.771
668.906
653.942
640.024
627.324
616.016
606.236
598.178
592.059
587.989
585.304
583.373
581.821
580.476
579.266
578.155
577.119
576.137
575.198
574.305
573.415
572.431
571.608
571.616
568.987
565.312
577.091
591.617
599.053
602.34
606.43
611.705
616.545
619.874
621.619
622.053
621.171
619.569
606.081
581.588
565.155
557.928
918.537
1131.22
1391.76
1461.29
1463.93
1462.12
1461.58
1461.3
1460.98
1460.59
1460.13
1459.09
1467.62
1305.9
1212.94
1175.24
1161.04
1156.76
1156.68
1157.07
1155.59
1151.79
1146.51
1140.68
1134.74
1128.7
1122.42
1115.77
1108.67
1101.07
1092.96
1084.28
1074.98
1065.03
1054.39
1043.05
1030.99
1018.18
1004.63
990.327
975.319
959.625
943.282
926.35
908.889
890.975
872.687
854.111
835.339
816.473
797.608
778.846
760.289
742.038
724.195
706.867
690.16
674.189
659.081
644.974
632.032
620.446
610.346
601.883
595.389
590.922
587.852
585.609
583.84
582.357
581.058
579.886
578.804
577.786
576.816
575.882
574.976
574.091
573.244
572.413
571.444
570.738
570.758
566.964
578.553
581.38
586.907
594.744
602.19
607.934
611.82
614.111
615.119
614.542
612.868
599.765
578.285
564.392
557.873
857.515
1102.49
1330.67
1452.69
1464.19
1461.91
1460.89
1460.49
1460.08
1459.58
1458.96
1457.91
1460.09
1369.8
1250.48
1188.44
1162.4
1152.43
1150.24
1151.58
1152.66
1150.93
1146.27
1140.03
1133.39
1126.74
1119.96
1112.86
1105.29
1097.21
1088.57
1079.33
1069.44
1058.9
1047.66
1035.72
1023.06
1009.66
995.523
980.689
965.175
949.015
932.268
914.985
897.243
879.113
860.683
842.037
823.277
804.49
785.775
767.236
748.968
731.071
713.654
696.816
680.671
665.34
650.959
637.682
625.699
615.173
606.186
599.107
594.093
590.568
587.985
585.977
584.33
582.917
581.662
580.519
579.455
578.45
577.489
576.562
575.662
574.784
573.923
573.072
572.254
571.447
570.456
570.171
567.989
564.75
574.189
584.342
592.664
599.035
603.597
606.548
608.176
607.792
605.938
592.437
574.936
563.614
557.808
870.809
1105.55
1324.05
1451.17
1463.74
1461.26
1460.17
1459.7
1459.19
1458.48
1457.47
1456.3
1454.43
1462.39
1303.78
1207.14
1165.86
1149.21
1144.06
1145.22
1148.4
1149.29
1146.01
1139.78
1132.49
1125.14
1117.81
1110.25
1102.27
1093.73
1084.6
1074.85
1064.44
1053.36
1041.59
1029.12
1015.92
1001.99
987.371
972.074
956.125
939.585
922.499
904.936
886.968
868.68
850.151
831.474
812.74
794.046
775.492
757.171
739.182
721.628
704.609
688.234
672.623
657.903
644.223
631.757
620.704
611.128
603.291
597.599
593.535
590.55
588.257
586.409
584.854
583.498
582.281
581.162
580.115
579.122
578.17
577.249
576.353
575.477
574.618
573.772
572.937
572.105
571.318
570.439
569.718
569.563
566.626
574.326
582.787
589.949
595.306
598.995
601.233
600.864
598.753
585.319
571.691
562.806
557.728
869.669
1106.58
1310.5
1450.91
1462.96
1460.39
1459.47
1458.93
1458.13
1457.13
1455.95
1454.62
1452.88
1455.37
1353.76
1234.47
1174.01
1148.93
1140.11
1139.9
1143.77
1146.8
1145.37
1139.66
1131.96
1123.92
1115.99
1107.98
1099.58
1090.63
1081.06
1070.83
1059.95
1048.39
1036.14
1023.18
1009.51
995.129
980.083
964.381
948.068
931.203
913.836
896.046
877.899
859.484
840.89
822.199
803.515
784.925
766.528
748.417
730.692
713.457
696.815
680.881
665.776
651.642
638.638
626.965
616.764
608.079
601.555
596.823
593.347
590.705
588.613
586.886
585.407
584.099
582.914
581.817
580.785
579.801
578.856
577.939
577.046
576.172
575.312
574.464
573.626
572.798
571.971
571.158
570.352
569.397
569.03
566.317
573.363
580.967
587.014
591.51
594.245
593.672
591.402
579.731
568.998
561.982
557.614
865.255
1174.05
1446.68
1462.84
1460.66
1459.31
1458.71
1457.92
1456.94
1455.8
1454.51
1453
1451.24
1450.03
1430.68
1274.75
1188.41
1153.26
1140.09
1137.4
1140.26
1144.02
1144.14
1139.36
1131.63
1123.07
1114.56
1106.06
1097.25
1087.9
1077.91
1067.27
1055.95
1043.96
1031.27
1017.88
1003.79
989.018
973.593
957.538
940.914
923.765
906.165
888.178
869.89
851.38
832.737
814.053
795.42
776.934
758.687
740.777
723.305
706.374
690.089
674.569
659.947
646.373
634.025
623.112
613.64
606.086
600.517
596.435
593.367
590.976
589.037
587.406
585.987
584.719
583.56
582.481
581.461
580.485
579.545
578.632
577.74
576.865
576.004
575.153
574.311
573.474
572.643
571.815
570.982
570.181
569.25
568.826
566.24
572.455
578.829
584.193
587.061
586.149
584.182
575.024
566.713
561.13
557.438
867.719
1202.01
1439.15
1464.79
1460.71
1458.72
1457.81
1456.88
1455.8
1454.55
1453.11
1451.46
1449.58
1447.08
1451.36
1318.45
1213.92
1165.08
1145.18
1138.64
1139.06
1141.92
1142.61
1138.73
1131.3
1122.48
1113.48
1104.5
1095.28
1085.55
1075.18
1064.15
1052.44
1040.05
1026.97
1013.19
998.725
983.601
967.835
951.479
934.579
917.189
899.386
881.241
862.831
844.246
825.571
806.897
788.323
769.937
751.835
734.115
716.878
700.228
684.278
669.149
654.986
641.951
630.239
620.002
611.276
604.72
599.903
596.309
593.544
591.339
589.516
587.959
586.589
585.353
584.215
583.15
582.14
581.171
580.234
579.322
578.43
577.553
576.688
575.832
574.982
574.138
573.296
572.455
571.613
570.76
569.925
568.968
568.451
566.036
571.176
577.166
579.365
578.434
577.527
570.972
564.776
560.266
557.19
866.927
1216.17
1440.83
1464.26
1460.07
1457.92
1456.9
1455.89
1454.71
1453.35
1451.78
1449.98
1447.94
1445.49
1445.49
1385.87
1256.97
1185.52
1155.21
1143.51
1140.54
1141.28
1141.38
1137.91
1130.88
1122.04
1112.72
1103.32
1093.69
1083.59
1072.87
1061.48
1049.41
1036.66
1023.21
1009.08
994.282
978.836
962.774
946.15
929.004
911.41
893.428
875.144
856.635
837.984
819.288
800.63
782.112
763.82
745.854
728.311
711.294
694.907
679.267
664.507
650.781
638.256
627.153
617.472
609.704
603.919
599.628
596.376
593.829
591.764
590.033
588.535
587.204
585.995
584.874
583.821
582.817
581.852
580.917
580.004
579.109
578.228
577.356
576.493
575.634
574.778
573.923
573.065
572.204
571.336
570.451
569.575
568.574
567.97
565.509
570.646
570.954
571.168
571.898
567.686
563.096
559.417
556.915
864.504
1158.25
1441.02
1461.87
1459
1457.09
1456.03
1454.94
1453.66
1452.19
1450.5
1448.58
1446.39
1443.92
1440.68
1445.06
1312.03
1214.89
1169.83
1151.21
1144.22
1142.24
1140.92
1137.23
1130.47
1121.73
1112.23
1102.49
1092.49
1082.03
1070.96
1059.24
1046.84
1033.75
1019.98
1005.53
990.433
974.697
958.374
941.506
924.142
906.361
888.228
869.817
851.22
832.516
813.8
795.164
776.696
758.492
740.65
723.268
706.449
690.304
674.955
660.542
647.225
635.188
624.634
615.49
608.541
603.394
599.534
596.557
594.185
592.232
590.572
589.122
587.822
586.633
585.526
584.481
583.482
582.518
581.581
580.665
579.765
578.876
577.996
577.121
576.25
575.379
574.507
573.631
572.747
571.853
570.944
570.011
569.071
568.012
567.202
565.529
563.212
565.666
567.458
565.055
561.57
558.616
556.692
867.08
1156.6
1432.4
1463.09
1458.87
1456.42
1455.22
1454.04
1452.66
1451.09
1449.29
1447.25
1444.93
1442.3
1439.18
1438.75
1376.76
1258.42
1191.09
1161.64
1149.43
1144.32
1141.18
1136.86
1130.17
1121.58
1112
1102
1091.65
1080.84
1069.45
1057.42
1044.71
1031.31
1017.23
1002.5
987.133
971.137
954.575
937.485
919.936
901.984
883.713
865.194
846.515
827.767
809.034
790.414
771.991
753.868
736.136
718.898
702.261
686.338
671.256
657.165
644.23
632.658
622.548
614.179
607.874
603.175
599.609
596.825
594.579
592.71
591.107
589.695
588.421
587.248
586.151
585.11
584.113
583.147
582.206
581.283
580.374
579.475
578.583
577.694
576.807
575.918
575.026
574.126
573.217
572.294
571.352
570.387
569.387
568.358
567.243
566.095
565.102
562.979
563.839
562.829
560.055
557.863
556.491
867.594
1107.85
1416.85
1459.41
1458.92
1456.03
1454.46
1453.16
1451.71
1450.04
1448.14
1445.99
1443.55
1440.78
1437.67
1433.76
1436.45
1320.6
1224.96
1177.49
1156.68
1147.2
1141.77
1136.61
1129.92
1121.52
1111.96
1101.74
1091.08
1079.95
1068.26
1055.93
1042.94
1029.26
1014.91
999.923
984.298
968.071
951.299
934.015
916.294
898.193
879.795
861.184
842.436
823.644
804.897
786.284
767.902
749.848
732.215
715.109
698.634
682.911
668.074
654.278
641.697
630.553
620.83
613.11
607.333
603.005
599.691
597.074
594.941
593.147
591.593
590.213
588.96
587.799
586.707
585.668
584.668
583.697
582.748
581.816
580.895
579.983
579.075
578.17
577.264
576.354
575.439
574.514
573.576
572.622
571.646
570.643
569.605
568.521
567.383
566.175
564.815
563.437
561.386
560.195
558.473
557.24
556.298
865.697
1322.71
1447.05
1462.35
1457.45
1454.99
1453.68
1452.34
1450.8
1449.05
1447.05
1444.8
1442.25
1439.37
1436.1
1432.35
1429.67
1400.16
1277.82
1201.41
1166.37
1150.59
1142.31
1136.14
1129.44
1121.27
1111.78
1101.43
1090.5
1079.08
1067.11
1054.52
1041.27
1027.35
1012.78
997.563
981.72
965.299
948.335
930.886
913.016
894.796
876.294
857.601
838.797
819.968
801.211
782.612
764.271
746.281
728.737
711.747
695.42
679.879
665.265
651.738
639.482
628.721
619.337
612.172
606.845
602.833
599.728
597.249
595.206
593.471
591.955
590.599
589.358
588.204
587.114
586.073
585.067
584.089
583.13
582.187
581.253
580.327
579.403
578.48
577.555
576.625
575.686
574.736
573.771
572.787
571.779
570.742
569.667
568.546
567.367
566.109
564.762
563.205
561.629
558.804
557.623
556.773
556.064
867.296
1118.38
1422.98
1460.43
1457.37
1454.52
1452.97
1451.55
1449.94
1448.11
1446.03
1443.68
1441.03
1438.02
1434.64
1430.86
1426.2
1428.45
1302.55
1213.19
1170.51
1151.3
1141.62
1135.04
1128.36
1120.26
1110.72
1100.21
1089.09
1077.45
1065.28
1052.51
1039.07
1024.97
1010.22
994.841
978.841
962.276
945.18
927.619
909.646
891.343
872.776
854.033
835.203
816.367
797.624
779.058
760.769
742.851
725.402
708.531
692.349
676.983
662.579
649.304
637.357
626.896
618.042
611.337
606.335
602.54
599.58
597.198
595.219
593.526
592.038
590.699
589.47
588.321
587.232
586.189
585.18
584.197
583.232
582.28
581.338
580.401
579.466
578.53
577.591
576.645
575.689
574.721
573.736
572.731
571.7
570.638
569.539
568.393
567.188
565.905
564.524
562.968
561.272
558.678
557.119
556.223
555.776
866.138
1206.35
1435.99
1461.06
1456.37
1453.73
1452.28
1450.81
1449.13
1447.22
1445.06
1442.62
1439.87
1436.76
1433.27
1429.27
1426.31
1396.88
1276.92
1200.52
1164.57
1148
1139.25
1132.82
1125.91
1117.5
1107.74
1097.12
1085.93
1074.24
1061.99
1049.12
1035.59
1021.4
1006.57
991.099
975.026
958.398
941.248
923.642
905.637
887.313
868.744
850.007
831.198
812.398
793.703
775.203
756.996
739.177
721.844
705.107
689.08
673.894
659.7
646.671
635.013
624.828
616.434
610.108
605.377
601.772
598.943
596.652
594.738
593.093
591.639
590.325
589.115
587.981
586.904
585.87
584.868
583.89
582.93
581.982
581.043
580.108
579.175
578.24
577.3
576.352
575.392
574.419
573.429
572.417
571.38
570.311
569.204
568.05
566.837
565.547
564.156
562.595
560.882
558.348
556.059
555.588
555.536
865.858
1113.34
1356.5
1454.31
1455.05
1453.09
1451.64
1450.11
1448.36
1446.38
1444.14
1441.63
1438.79
1435.58
1432
1427.67
1428.61
1329.63
1233.31
1181.3
1156.69
1144.31
1136.68
1130.02
1122.5
1113.66
1103.75
1093.13
1081.98
1070.3
1058.03
1045.13
1031.56
1017.34
1002.48
986.985
970.891
954.249
937.089
919.483
901.485
883.177
864.633
845.933
827.172
808.432
789.805
771.385
753.269
735.552
718.339
701.735
685.859
670.843
656.846
644.042
632.646
622.706
614.697
608.69
604.191
600.75
598.037
595.829
593.975
592.374
590.953
589.665
588.475
587.356
586.292
585.268
584.275
583.304
582.35
581.407
580.472
579.542
578.612
577.681
576.745
575.801
574.847
573.879
572.895
571.89
570.859
569.795
568.694
567.545
566.338
565.053
563.666
562.115
560.387
557.888
556.185
555.533
555.522
865.161
1116.03
1329.97
1451.07
1454.09
1452.51
1451.05
1449.47
1447.66
1445.61
1443.31
1440.72
1437.79
1434.51
1430.75
1428.12
1394.99
1275.81
1201.9
1167.2
1150.56
1141.07
1133.95
1126.86
1118.8
1109.68
1099.73
1089.16
1078.06
1066.41
1054.15
1041.25
1027.68
1013.46
998.601
983.11
967.024
950.392
933.244
915.656
897.682
879.401
860.896
842.242
823.531
804.85
786.29
767.946
749.915
732.291
715.181
698.692
682.945
668.077
654.246
641.632
630.458
620.721
613.022
607.273
602.966
599.661
597.047
594.91
593.108
591.546
590.155
588.889
587.715
586.611
585.558
584.543
583.557
582.593
581.644
580.706
579.776
578.849
577.923
576.996
576.064
575.126
574.177
573.216
572.239
571.241
570.219
569.165
568.073
566.935
565.738
564.464
563.086
561.551
559.8
557.534
554.415
553.976
555.095
867.634
1099.69
1323.77
1448.52
1455.51
1452.25
1450.53
1448.87
1447.01
1444.91
1442.54
1439.89
1436.89
1433.55
1429.47
1431.32
1322.22
1228.32
1180.3
1157.83
1146
1138.09
1131.1
1123.62
1115.21
1105.95
1096.01
1085.51
1074.47
1062.86
1050.62
1037.74
1024.19
1009.99
995.15
979.678
963.617
947.007
929.884
912.325
894.383
876.139
857.674
839.063
820.398
801.771
783.27
764.99
747.029
729.482
712.456
696.061
680.418
665.666
651.968
639.505
628.508
618.932
611.474
605.929
601.776
598.584
596.051
593.974
592.217
590.687
589.321
588.075
586.917
585.824
584.78
583.773
582.793
581.834
580.89
579.956
579.029
578.106
577.183
576.259
575.331
574.395
573.45
572.493
571.52
570.528
569.511
568.464
567.381
566.252
565.065
563.802
562.439
560.909
559.221
556.702
555.313
554.252
554.82
868.116
1101.76
1395.31
1451.8
1455.83
1452.23
1450.04
1448.31
1446.42
1444.27
1441.85
1439.15
1436.09
1432.59
1430.82
1382.64
1265.58
1197.17
1166.02
1151.1
1142.27
1135.31
1128.3
1120.51
1111.88
1102.56
1092.66
1082.24
1071.26
1059.69
1047.5
1034.65
1021.14
1006.97
992.17
976.734
960.708
944.133
927.046
909.524
891.621
873.416
854.99
836.42
817.798
799.218
780.764
762.533
744.626
727.137
710.173
693.847
678.282
663.617
650.018
637.67
626.806
617.35
610.07
604.681
600.648
597.546
595.08
593.053
591.334
589.832
588.488
587.258
586.112
585.029
583.993
582.992
582.018
581.063
580.122
579.191
578.266
577.345
576.425
575.503
574.576
573.643
572.701
571.746
570.776
569.786
568.773
567.729
566.651
565.527
564.348
563.092
561.741
560.223
558.559
556.03
554.716
554.359
554.7
868.182
1111.05
1406.57
1453.64
1455.05
1451.71
1449.59
1447.82
1445.88
1443.7
1441.24
1438.48
1435.4
1431.56
1434.69
1311.31
1219.01
1175.27
1155.84
1145.94
1139.2
1132.81
1125.67
1117.61
1108.83
1099.51
1089.69
1079.35
1068.44
1056.93
1044.79
1031.99
1018.53
1004.42
989.666
974.278
958.301
941.772
924.729
907.251
889.39
871.226
852.84
834.309
815.724
797.18
778.763
760.57
742.699
725.25
708.327
692.045
676.529
661.921
648.387
636.115
625.341
615.969
608.81
603.531
599.588
596.556
594.144
592.158
590.47
588.992
587.666
586.45
585.315
584.24
583.21
582.214
581.244
580.291
579.353
578.424
577.501
576.581
575.662
574.741
573.816
572.884
571.943
570.989
570.021
569.033
568.022
566.981
565.905
564.785
563.609
562.359
561.014
559.506
557.84
555.453
553.119
553.844
554.615
867.092
1249.2
1437.66
1457.89
1453.57
1450.86
1449.14
1447.39
1445.41
1443.19
1440.7
1437.9
1434.66
1433.76
1369.04
1251.2
1187.08
1159.79
1148.01
1141.82
1136.68
1130.62
1123.24
1114.94
1106.08
1096.8
1087.07
1076.82
1065.99
1054.56
1042.49
1029.75
1016.36
1002.32
987.626
972.301
956.384
939.912
922.924
905.496
887.683
869.562
851.215
832.719
814.167
795.651
777.26
759.09
741.24
723.812
706.911
690.649
675.155
660.571
647.068
634.833
624.106
614.781
607.689
602.477
598.596
595.615
593.245
591.292
589.63
588.171
586.86
585.656
584.53
583.462
582.437
581.444
580.476
579.526
578.589
577.661
576.739
575.819
574.9
573.98
573.055
572.123
571.182
570.23
569.262
568.275
567.265
566.227
565.152
564.034
562.862
561.615
560.275
558.776
557.102
554.834
552.372
553.267
554.514
869.414
1114.59
1424.68
1458.19
1453.59
1450.6
1448.78
1446.99
1444.99
1442.75
1440.23
1437.41
1433.91
1437.46
1302.06
1207.4
1165.51
1148.83
1142.19
1138.7
1134.66
1128.64
1120.97
1112.47
1103.6
1094.42
1084.8
1074.65
1063.91
1052.56
1040.57
1027.92
1014.61
1000.65
986.04
970.792
954.948
938.545
921.621
904.251
886.489
868.414
850.107
831.645
813.121
794.625
776.249
758.09
740.246
722.818
705.916
689.652
674.154
659.565
646.056
633.818
623.093
613.781
606.7
601.515
597.667
594.721
592.381
590.454
588.811
587.37
586.071
584.876
583.757
582.694
581.673
580.684
579.717
578.768
577.832
576.904
575.981
575.062
574.142
573.221
572.296
571.364
570.423
569.469
568.502
567.515
566.506
565.468
564.394
563.278
562.107
560.864
559.528
558.032
556.398
553.909
551.802
552.766
554.401
869.614
1146.89
1427.54
1457.81
1453.17
1450.25
1448.46
1446.66
1444.64
1442.37
1439.84
1436.92
1435.45
1389.33
1253.36
1181.11
1152.39
1141.86
1138.45
1136.61
1132.95
1126.69
1118.76
1110.2
1101.41
1092.35
1082.85
1072.81
1062.17
1050.91
1039.03
1026.49
1013.27
999.411
984.897
969.742
953.982
937.662
920.814
903.51
885.806
867.782
849.514
831.082
812.581
794.098
775.729
757.566
739.712
722.269
705.344
689.053
673.523
658.898
645.35
633.07
622.304
612.967
605.841
600.641
596.8
593.871
591.551
589.641
588.015
586.586
585.297
584.11
582.997
581.938
580.92
579.933
578.967
578.018
577.081
576.153
575.23
574.309
573.389
572.466
571.539
570.606
569.664
568.71
567.741
566.755
565.744
564.706
563.634
562.518
561.349
560.108
558.778
557.286
555.585
554.765
552.002
552.403
554.278
866.604
1173.42
1441.25
1455.34
1452.15
1449.86
1448.18
1446.38
1444.34
1442.06
1439.52
1436.49
1437.82
1323.49
1216.51
1165.72
1145.57
1138.56
1136.78
1135.32
1131.31
1124.65
1116.61
1108.14
1099.51
1090.6
1081.22
1071.28
1060.76
1049.62
1037.85
1025.43
1012.34
998.589
984.192
969.146
953.486
937.262
920.5
903.273
885.633
867.664
849.438
831.035
812.554
794.076
775.704
757.526
739.646
722.168
705.201
688.858
673.269
658.577
644.955
632.593
621.738
612.34
605.111
599.853
595.991
593.062
590.75
588.853
587.238
585.819
584.538
583.357
582.249
581.193
580.177
579.19
578.225
577.276
576.338
575.408
574.483
573.561
572.639
571.714
570.786
569.851
568.907
567.951
566.981
565.993
564.982
563.943
562.871
561.757
560.589
559.35
558.016
556.609
554.324
555.09
552.616
552.236
554.154
871.363
1110.76
1368.83
1448.68
1453.78
1450.13
1447.98
1446.14
1444.1
1441.82
1439.29
1436
1441.7
1282.78
1192.92
1156.76
1142.83
1138.08
1136.61
1134.4
1129.56
1122.56
1114.59
1106.34
1097.91
1089.14
1079.88
1070.07
1059.67
1048.68
1037.04
1024.76
1011.81
998.189
983.921
969.003
953.461
937.345
920.682
903.542
885.975
868.065
849.881
831.511
813.045
794.567
776.18
757.976
740.058
722.527
705.496
689.079
673.402
658.611
644.879
632.395
621.408
611.905
604.511
599.149
595.238
592.292
589.98
588.088
586.48
585.068
583.793
582.617
581.511
580.458
579.443
578.456
577.491
576.54
575.601
574.669
573.743
572.818
571.893
570.966
570.035
569.098
568.152
567.194
566.222
565.232
564.22
563.18
562.108
560.994
559.826
558.593
557.253
555.783
555.833
556.009
553.493
552.236
554.037
872.551
1116.72
1405.09
1453.35
1453.04
1449.72
1447.8
1445.96
1443.92
1441.64
1439.01
1438.72
1362.56
1239.95
1177.58
1152.5
1142.77
1139.15
1136.98
1133.42
1127.7
1120.54
1112.8
1104.82
1096.59
1087.96
1078.83
1069.16
1058.91
1048.07
1036.59
1024.47
1011.67
998.206
984.088
969.316
953.908
937.915
921.366
904.324
886.841
868.997
850.861
832.523
814.069
795.586
777.177
758.935
740.959
723.358
706.243
689.726
673.936
659.018
645.139
632.493
621.325
611.674
604.045
598.53
594.541
591.561
589.237
587.344
585.74
584.332
583.061
581.888
580.785
579.732
578.717
577.73
576.764
575.812
574.871
573.937
573.007
572.08
571.152
570.222
569.288
568.347
567.398
566.438
565.464
564.471
563.457
562.416
561.342
560.228
559.063
557.825
556.583
554.305
556.622
557.262
554.481
552.354
553.933
872.239
1219.47
1435.98
1456.9
1452.11
1449.39
1447.64
1445.83
1443.79
1441.53
1438.73
1442.29
1302.64
1207.59
1166.57
1150.31
1143.74
1140.44
1137.07
1132.19
1125.87
1118.77
1111.3
1103.57
1095.52
1087.04
1078.06
1068.55
1058.46
1047.78
1036.49
1024.54
1011.93
998.639
984.69
970.086
954.833
938.982
922.56
905.63
888.241
870.472
852.39
834.085
815.64
797.15
778.713
760.42
742.378
724.69
707.468
690.826
674.894
659.814
645.755
632.907
621.512
611.662
603.719
597.997
593.898
590.866
588.521
586.621
585.016
583.61
582.342
581.17
580.068
579.016
578.001
577.013
576.044
575.09
574.147
573.21
572.277
571.346
570.415
569.481
568.544
567.6
566.648
565.684
564.706
563.711
562.695
561.653
560.578
559.463
558.301
557.051
555.753
556.486
558.042
558.64
555.548
552.557
553.841
874.677
1112.35
1396.84
1451.82
1453.17
1449.62
1447.57
1445.75
1443.72
1441.44
1439.84
1409.06
1262.28
1187.72
1159.56
1149.04
1144.48
1140.99
1136.52
1130.79
1124.25
1117.3
1110.09
1102.58
1094.7
1086.38
1077.56
1068.22
1058.33
1047.84
1036.74
1024.99
1012.58
999.489
985.734
971.317
956.242
940.553
924.283
907.475
890.197
872.509
854.492
836.224
817.792
799.291
780.813
762.462
744.336
726.544
709.197
692.407
676.305
661.034
646.757
633.665
621.993
611.893
603.542
597.554
593.311
590.208
587.831
585.918
584.309
582.902
581.634
580.464
579.362
578.309
577.293
576.303
575.332
574.375
573.428
572.488
571.552
570.617
569.682
568.745
567.803
566.855
565.899
564.932
563.951
562.953
561.934
560.89
559.814
558.698
557.535
556.393
554.082
557.809
559.834
560.246
556.651
552.817
553.763
873.824
1114.08
1428.19
1454.85
1451.57
1449.28
1447.52
1445.72
1443.71
1441.38
1442.1
1344.9
1229.9
1176.02
1155.75
1148.23
1144.47
1140.6
1135.48
1129.41
1122.9
1116.14
1109.15
1101.83
1094.11
1085.96
1077.34
1068.19
1058.49
1048.22
1037.34
1025.82
1013.63
1000.76
987.222
973.017
958.145
942.637
926.539
909.879
892.726
875.136
857.192
838.966
820.548
802.033
783.515
765.095
746.873
728.959
711.465
694.503
678.205
662.71
648.18
634.803
622.807
612.403
603.601
597.222
592.778
589.585
587.166
585.235
583.618
582.208
580.939
579.768
578.665
577.611
576.593
575.601
574.627
573.668
572.717
571.773
570.832
569.893
568.953
568.012
567.066
566.114
565.153
564.182
563.197
562.196
561.174
560.128
559.05
557.943
556.737
555.542
556.806
559.722
561.713
562.025
557.761
553.112
553.697
876.551
1110.44
1346.64
1447.1
1452.98
1449.56
1447.53
1445.73
1443.76
1441.33
1444.81
1301.51
1207.83
1168.71
1153.65
1147.55
1143.83
1139.59
1134.24
1128.19
1121.82
1115.25
1108.43
1101.28
1093.75
1085.79
1077.37
1068.43
1058.97
1048.92
1038.28
1027.01
1015.08
1002.46
989.167
975.2
960.561
945.263
929.356
912.866
895.856
878.382
860.521
842.347
823.951
805.423
786.858
768.36
750.033
731.98
714.317
697.161
680.639
664.889
650.07
636.365
623.996
613.217
604.01
597.089
592.329
588.994
586.521
584.568
582.941
581.527
580.256
579.083
577.978
576.923
575.902
574.907
573.93
572.966
572.012
571.063
570.118
569.174
568.23
567.284
566.332
565.375
564.41
563.435
562.446
561.441
560.416
559.368
558.291
557.148
556.226
553.863
558.703
562.029
563.775
563.945
558.916
553.43
553.641
878.32
1122.92
1406.75
1453.15
1452.44
1449.38