/*--------------------------------*- C++ -*----------------------------------*\
  =========                 |
  \\      /  F ield         | OpenFOAM: The Open Source CFD Toolbox
   \\    /   O peration     | Website:  https://openfoam.org
    \\  /    A nd           | Version:  9
     \\/     M anipulation  |
\*---------------------------------------------------------------------------*/
FoamFile
{
    format      ascii;
    class       volVectorField;
    location    "2250";
    object      U;
}
// * * * * * * * * * * * * * * * * * * * * * * * * * * * * * * * * * * * * * //

dimensions      [0 1 -1 0 0 0 0];

internalField   nonuniform List<vector> 
13446
(
(1.15164 -4.07023e-05 -7.68298e-21)
(1.15164 -4.04095e-05 6.98712e-21)
(1.15173 -0.000120427 9.1597e-21)
(1.15164 -4.00967e-05 -9.32673e-21)
(1.15172 -0.000119835 -2.90631e-20)
(1.15179 -0.000203591 5.96233e-21)
(1.15185 -0.000290529 8.10123e-21)
(1.15191 -0.00037951 -8.27931e-21)
(1.15164 -3.97622e-05 8.53631e-21)
(1.15171 -0.000119161 3.85634e-20)
(1.15178 -0.00020235 0)
(1.15183 -0.000288649 1.9332e-21)
(1.15189 -0.000377005 1.06453e-20)
(1.15193 -0.000467734 1.14897e-20)
(1.15163 -3.94149e-05 -8.17878e-21)
(1.1517 -0.000118406 -1.62186e-20)
(1.15176 -0.000200991 4.51567e-23)
(1.15182 -0.000286604 -1.02182e-20)
(1.15187 -0.000374286 -1.07318e-20)
(1.15191 -0.000464312 1.67131e-20)
(1.15195 -0.000557026 0)
(1.15163 -3.90478e-05 0)
(1.1517 -0.000117575 -2.88904e-20)
(1.15175 -0.000199516 3.18061e-21)
(1.1518 -0.000284399 0)
(1.15185 -0.000371352 0)
(1.15189 -0.000460622 -2.97355e-20)
(1.15193 -0.000552539 -3.99104e-21)
(1.15196 -0.000647284 4.23144e-21)
(1.15199 -0.00074506 2.32066e-21)
(1.15201 -0.000846127 -2.46005e-21)
(1.15203 -0.000950769 7.20985e-21)
(1.15205 -0.00105929 1.38283e-20)
(1.15207 -0.00117201 -1.07447e-20)
(1.15208 -0.00128928 1.01724e-20)
(1.15208 -0.00141148 1.05837e-20)
(1.15209 -0.00153901 2.29292e-21)
(1.15209 -0.0016723 -1.97951e-20)
(1.15209 -0.00181182 1.96474e-20)
(1.15208 -0.00195806 3.25616e-21)
(1.15207 -0.00211154 -1.08246e-20)
(1.15206 -0.00227283 -6.67624e-21)
(1.15204 -0.00244254 0)
(1.15202 -0.00262133 0)
(1.15199 -0.00280989 1.40458e-20)
(1.15196 -0.00300897 -1.92736e-20)
(1.15192 -0.0032194 5.69946e-21)
(1.15188 -0.00344205 -3.25901e-21)
(1.15184 -0.00367787 0)
(1.15179 -0.00392791 0)
(1.15173 -0.00419327 -1.04957e-20)
(1.15167 -0.00447519 1.22899e-20)
(1.15163 -3.86655e-05 0)
(1.15169 -0.000116666 5.23018e-20)
(1.15174 -0.000197927 3.44284e-23)
(1.15179 -0.000282041 2.02089e-20)
(1.15183 -0.000368219 4.08035e-21)
(1.15187 -0.000456677 1.18622e-20)
(1.1519 -0.000547747 -1.97387e-20)
(1.15193 -0.000641609 -2.51131e-21)
(1.15196 -0.000738457 -8.79866e-21)
(1.15198 -0.000838551 0)
(1.152 -0.000942167 3.22924e-21)
(1.15201 -0.0010496 -6.96708e-21)
(1.15202 -0.00116117 3.4326e-20)
(1.15203 -0.00127721 -1.57387e-20)
(1.15204 -0.0013981 -8.72947e-21)
(1.15204 -0.00152423 2.67742e-21)
(1.15203 -0.00165603 -7.36742e-21)
(1.15203 -0.00179393 -9.0056e-21)
(1.15202 -0.00193844 3.78151e-21)
(1.152 -0.00209006 -2.05024e-20)
(1.15199 -0.00224935 1.11412e-20)
(1.15196 -0.00241691 1.75056e-22)
(1.15194 -0.00259339 1.28742e-20)
(1.15191 -0.00277946 -3.28502e-21)
(1.15187 -0.00297587 0)
(1.15183 -0.00318342 -9.28786e-21)
(1.15178 -0.00340298 9.43772e-21)
(1.15173 -0.00363549 1.50226e-20)
(1.15167 -0.00388195 -3.1476e-21)
(1.15161 -0.00414348 1.40727e-20)
(1.15154 -0.00442125 -1.60955e-20)
(1.15146 -0.00471657 -2.19818e-20)
(1.15137 -0.00503084 1.03285e-20)
(1.11801 -0.0776546 -6.1449e-21)
(1.11557 -0.0832455 0)
(1.11303 -0.0892972 0)
(1.11042 -0.0958608 -3.74335e-20)
(1.10776 -0.103 0)
(1.10507 -0.11078 -4.67388e-20)
(1.1024 -0.119286 2.39119e-20)
(1.09981 -0.128606 0)
(1.09737 -0.138835 -7.54013e-21)
(1.09518 -0.150106 1.60897e-20)
(1.09341 -0.162529 -4.48349e-20)
(1.09222 -0.176259 -3.81019e-20)
(1.0919 -0.191379 0)
(1.09274 -0.208132 4.12352e-21)
(1.09534 -0.226307 1.0176e-20)
(1.09991 -0.246485 5.02477e-21)
(1.10794 -0.267234 9.088e-21)
(1.11855 -0.290712 1.13517e-21)
(1.13607 -0.311009 2.52578e-21)
(1.15403 -0.336879 1.34331e-20)
(1.18717 -0.348126 -3.8278e-21)
(1.20705 -0.375757 3.92236e-21)
(1.26712 -0.361918 0)
(1.25781 -0.392602 -6.74557e-20)
(1.39358 -0.342825 -5.00992e-21)
(1.07232 -0.329255 1.23872e-19)
(1.15163 -3.82684e-05 -6.58214e-21)
(1.15168 -0.000115695 -2.1943e-20)
(1.15173 -0.000196233 0)
(1.15178 -0.000279531 -1.65695e-20)
(1.15182 -0.000364886 -4.6667e-21)
(1.15185 -0.000452491 2.59083e-20)
(1.15188 -0.000542661 1.99998e-20)
(1.15191 -0.00063558 2.88407e-21)
(1.15193 -0.000731446 2.16154e-20)
(1.15195 -0.000830507 -3.39857e-21)
(1.15196 -0.000933033 3.60269e-21)
(1.15198 -0.00103931 0)
(1.15198 -0.00114966 -3.96381e-20)
(1.15199 -0.00126441 2.27656e-21)
(1.15199 -0.00138391 1.40057e-20)
(1.15199 -0.00150856 1.26399e-20)
(1.15198 -0.00163876 1.59895e-20)
(1.15197 -0.00177497 -3.63508e-21)
(1.15196 -0.00191764 1.33509e-20)
(1.15194 -0.0020673 1.34611e-20)
(1.15192 -0.00222449 0)
(1.15189 -0.00238978 0)
(1.15186 -0.00256381 -2.36029e-20)
(1.15182 -0.00274726 -1.98994e-20)
(1.15178 -0.00294085 4.52736e-21)
(1.15174 -0.00314537 2.03587e-21)
(1.15168 -0.00336166 2.72917e-21)
(1.15163 -0.00359066 -8.87304e-21)
(1.15156 -0.00383335 1.18204e-20)
(1.15149 -0.00409081 2.18561e-20)
(1.15141 -0.0043642 -4.60627e-21)
(1.15132 -0.0046548 -1.02541e-21)
(1.15122 -0.00496397 0)
(1.15112 -0.00529319 -1.31099e-21)
(1.11825 -0.0710026 0)
(1.11575 -0.0760866 7.06305e-21)
(1.11312 -0.0815839 -7.5096e-21)
(1.11039 -0.0875405 -2.69856e-20)
(1.10756 -0.09401 2.83918e-20)
(1.10465 -0.101057 -5.64121e-21)
(1.10168 -0.108748 5.33788e-20)
(1.0987 -0.117167 -3.52538e-20)
(1.09574 -0.12641 -2.39256e-20)
(1.09288 -0.136584 3.44772e-20)
(1.09021 -0.147824 2.85595e-20)
(1.08789 -0.160259 4.638e-20)
(1.08606 -0.174056 -4.55307e-21)
(1.08501 -0.189337 -1.73765e-20)
(1.08502 -0.206364 -2.82443e-20)
(1.08668 -0.225007 -2.29534e-20)
(1.09025 -0.245854 2.47386e-20)
(1.09722 -0.267652 -9.48326e-21)
(1.10684 -0.292457 1.06164e-21)
(1.12359 -0.314702 1.79202e-21)
(1.14107 -0.342748 -7.75656e-21)
(1.17466 -0.356737 -4.16201e-21)
(1.19527 -0.387298 0)
(1.25823 -0.375257 7.1822e-21)
(1.25086 -0.409454 6.1102e-20)
(1.39199 -0.356649 5.15129e-21)
(1.07514 -0.347392 -1.17369e-19)
(1.15163 -3.78582e-05 0)
(1.15168 -0.000114653 -4.15803e-20)
(1.15172 -0.000194429 2.42212e-20)
(1.15176 -0.000276876 0)
(1.1518 -0.000361365 0)
(1.15183 -0.000448065 -2.68954e-20)
(1.15186 -0.000537286 -8.00086e-23)
(1.15188 -0.000629211 6.41638e-21)
(1.1519 -0.00072404 1.45278e-21)
(1.15192 -0.000822011 0)
(1.15193 -0.000923387 0)
(1.15194 -0.00102845 -4.61868e-21)
(1.15195 -0.00113751 2.37746e-20)
(1.15195 -0.00125088 2.8114e-21)
(1.15195 -0.00136892 -1.45169e-20)
(1.15194 -0.00149201 -1.2821e-20)
(1.15193 -0.00162055 3.87259e-21)
(1.15192 -0.00175496 -4.10521e-21)
(1.1519 -0.00189572 1.87706e-21)
(1.15188 -0.00204331 0)
(1.15185 -0.00219828 -1.25043e-20)
(1.15182 -0.00236119 0)
(1.15179 -0.00253266 1.44839e-20)
(1.15174 -0.00271335 1.1947e-20)
(1.1517 -0.00290398 -1.56792e-20)
(1.15165 -0.00310531 -2.87256e-21)
(1.15159 -0.00331818 3.04539e-21)
(1.15152 -0.00354348 0)
(1.15145 -0.0037822 -3.25844e-20)
(1.15137 -0.00403538 -1.77615e-20)
(1.15128 -0.00430416 0)
(1.15119 -0.00458977 2.72885e-20)
(1.15108 -0.00489357 -3.3295e-21)
(1.15097 -0.00521699 1.09955e-20)
(1.15084 -0.00556159 -1.90667e-20)
(1.1507 -0.00592908 -1.64385e-20)
(1.11872 -0.0648541 -6.84123e-20)
(1.1162 -0.0694727 -1.25684e-20)
(1.11354 -0.0744607 -7.59965e-21)
(1.11074 -0.0798599 -2.61393e-20)
(1.10782 -0.0857155 3.64944e-20)
(1.10477 -0.0920804 -3.27014e-20)
(1.10161 -0.09902 -1.15924e-20)
(1.09837 -0.106606 -6.82935e-21)
(1.09507 -0.114924 3.59663e-20)
(1.09175 -0.124073 3.17896e-20)
(1.08847 -0.134168 -2.57495e-20)
(1.08533 -0.145347 -8.93913e-20)
(1.08244 -0.157757 0)
(1.07996 -0.17158 4.95683e-20)
(1.07816 -0.186976 1.67681e-20)
(1.0773 -0.204215 2.31396e-20)
(1.07797 -0.223258 0)
(1.08044 -0.244706 -1.76878e-20)
(1.08624 -0.267489 -2.63368e-21)
(1.09467 -0.293579 -7.21017e-21)
(1.11039 -0.317783 -9.74624e-22)
(1.12712 -0.34812 1.43022e-20)
(1.16088 -0.365084 -3.33713e-21)
(1.18199 -0.398937 0)
(1.2479 -0.389154 0)
(1.24241 -0.427464 0)
(1.38956 -0.371411 0)
(1.07654 -0.366869 0)
(1.15162 -3.74308e-05 0)
(1.15167 -0.000113544 3.28399e-20)
(1.15171 -0.000192527 7.02771e-21)
(1.15175 -0.000274088 2.85248e-20)
(1.15178 -0.000357661 3.27792e-23)
(1.15181 -0.000443421 6.04685e-23)
(1.15184 -0.000531644 -6.68027e-21)
(1.15186 -0.000622528 -3.65833e-21)
(1.15188 -0.00071626 5.33482e-21)
(1.15189 -0.000813083 0)
(1.1519 -0.000913251 0)
(1.15191 -0.00101704 0)
(1.15191 -0.00112474 -5.69954e-21)
(1.15191 -0.00123667 2.89325e-21)
(1.1519 -0.00135318 6.82762e-21)
(1.15189 -0.00147463 -3.69961e-21)
(1.15188 -0.00160142 2.19279e-20)
(1.15186 -0.00173396 -2.42314e-20)
(1.15184 -0.0018727 -2.01056e-20)
(1.15182 -0.00201814 0)
(1.15179 -0.00217079 1.2699e-20)
(1.15175 -0.0023312 0)
(1.15171 -0.00249999 0)
(1.15167 -0.0026778 1.98943e-20)
(1.15161 -0.00286533 2.07245e-20)
(1.15156 -0.00306332 -3.17769e-21)
(1.15149 -0.0032726 1.78408e-20)
(1.15142 -0.00349404 0)
(1.15134 -0.00372859 1.72682e-20)
(1.15126 -0.00397728 0)
(1.15116 -0.00424122 0)
(1.15106 -0.00452162 -1.27785e-20)
(1.15094 -0.00481977 0)
(1.15082 -0.0051371 2.24387e-20)
(1.15068 -0.00547512 -6.23167e-21)
(1.15053 -0.00583548 2.76102e-20)
(1.15037 -0.00621994 -8.10283e-21)
(1.13154 -0.0394881 2.95687e-20)
(1.12983 -0.0422249 1.06774e-20)
(1.128 -0.0451563 2.59466e-20)
(1.12605 -0.0482983 2.21397e-20)
(1.12396 -0.051669 -5.91834e-22)
(1.12174 -0.0552889 9.11483e-21)
(1.11937 -0.059181 3.28815e-20)
(1.11686 -0.063374 1.09558e-19)
(1.1142 -0.0678961 0)
(1.11139 -0.0727835 3.23166e-20)
(1.10842 -0.0780759 7.13822e-20)
(1.10531 -0.0838221 0)
(1.10205 -0.0900738 4.42851e-20)
(1.09865 -0.0968973 0)
(1.09514 -0.104367 2.2216e-20)
(1.09152 -0.112568 -3.35403e-20)
(1.08784 -0.121606 5.4898e-20)
(1.08415 -0.131597 2.12096e-20)
(1.08053 -0.142691 7.5115e-21)
(1.07707 -0.155036 -6.01389e-21)
(1.07394 -0.168842 6.3848e-21)
(1.07136 -0.184293 -2.87268e-20)
(1.06961 -0.201688 6.94363e-21)
(1.06923 -0.22106 -7.35485e-21)
(1.07052 -0.243023 0)
(1.075 -0.266705 -2.73055e-20)
(1.08207 -0.294031 1.79396e-20)
(1.09652 -0.320178 0)
(1.11217 -0.352881 2.30748e-21)
(1.14581 -0.373029 9.51943e-21)
(1.16703 -0.410561 4.65607e-21)
(1.23592 -0.403526 -4.74796e-21)
(1.23228 -0.446746 0)
(1.38662 -0.387402 8.11336e-20)
(1.07706 -0.388543 -6.53948e-21)
(1.15162 -3.69934e-05 3.93242e-20)
(1.15167 -0.000112376 5.42506e-21)
(1.15171 -0.000190523 -2.77841e-20)
(1.15174 -0.000271161 -2.33945e-20)
(1.15177 -0.000353788 6.52373e-21)
(1.15179 -0.000438552 7.31447e-23)
(1.15182 -0.000525738 -3.84629e-20)
(1.15184 -0.000615531 4.06299e-21)
(1.15185 -0.000708118 -2.84539e-21)
(1.15186 -0.00080374 0)
(1.15187 -0.000902642 0)
(1.15187 -0.00100509 -5.75128e-21)
(1.15187 -0.00111138 6.09655e-21)
(1.15187 -0.00122181 -1.42409e-20)
(1.15186 -0.00133671 -1.57477e-20)
(1.15185 -0.00145645 0)
(1.15183 -0.00158141 -1.78974e-20)
(1.15181 -0.00171199 1.99751e-20)
(1.15179 -0.00184864 0)
(1.15176 -0.00199182 0)
(1.15172 -0.00214205 -1.90299e-20)
(1.15168 -0.00229987 8.27908e-21)
(1.15164 -0.00246587 -2.38551e-20)
(1.15159 -0.00264067 -4.2056e-20)
(1.15153 -0.00282497 1.23394e-20)
(1.15147 -0.00301948 0)
(1.1514 -0.00322501 -3.0551e-20)
(1.15132 -0.00344242 0)
(1.15124 -0.00367262 0)
(1.15115 -0.00391663 2.32028e-20)
(1.15104 -0.00417551 0)
(1.15093 -0.00445046 1.88052e-20)
(1.15081 -0.00474273 -4.00235e-21)
(1.15067 -0.00505369 -1.82424e-20)
(1.15053 -0.00538483 -1.45096e-21)
(1.15037 -0.00573774 -6.40221e-21)
(1.15019 -0.00611414 4.84924e-20)
(1.15001 -0.00651588 -1.24118e-20)
(1.1498 -0.00694495 1.33417e-20)
(1.13207 -0.0360478 -4.45481e-20)
(1.13041 -0.0385398 -3.03314e-20)
(1.12862 -0.0412077 1.22867e-20)
(1.12672 -0.0440655 -1.1787e-20)
(1.12467 -0.04713 -3.01555e-20)
(1.12249 -0.0504186 -4.52244e-20)
(1.12017 -0.0539525 -7.0814e-22)
(1.11769 -0.057755 -3.36693e-20)
(1.11506 -0.0618518 -5.09405e-20)
(1.11226 -0.0662723 -7.67675e-21)
(1.1093 -0.0710533 -1.59902e-20)
(1.10617 -0.0762344 -4.65004e-20)
(1.10287 -0.0818649 5.5414e-20)
(1.0994 -0.0879979 -1.18615e-20)
(1.09577 -0.0946958 -7.08554e-21)
(1.09198 -0.102032 -1.46086e-20)
(1.08806 -0.110102 6.09055e-20)
(1.08403 -0.119009 -7.74962e-20)
(1.07993 -0.128879 -3.07344e-20)
(1.07582 -0.139852 3.43639e-20)
(1.07181 -0.152108 0)
(1.06801 -0.165857 -2.962e-20)
(1.06465 -0.181305 4.87633e-21)
(1.06197 -0.198783 2.58456e-20)
(1.0605 -0.218397 -3.52391e-20)
(1.06053 -0.240793 -3.85622e-21)
(1.06357 -0.265283 3.18546e-20)
(1.0691 -0.293762 -1.07987e-20)
(1.08202 -0.321803 0)
(1.09628 -0.356914 -1.93216e-21)
(1.12938 -0.380431 -1.96579e-20)
(1.15023 -0.422007 0)
(1.22207 -0.41827 3.92274e-20)
(1.2199 -0.467386 0)
(1.38235 -0.404651 -3.88647e-20)
(1.07799 -0.413554 0)
(1.15162 -3.65456e-05 -8.84602e-20)
(1.15166 -0.000111152 -6.0094e-21)
(1.1517 -0.000188429 0)
(1.15173 -0.000268107 0)
(1.15175 -0.000349742 0)
(1.15178 -0.000433477 7.70277e-21)
(1.1518 -0.000519578 2.34519e-20)
(1.15181 -0.000608232 -4.48145e-21)
(1.15182 -0.00069963 1.10804e-20)
(1.15183 -0.000793997 -1.04478e-20)
(1.15184 -0.000891579 5.61175e-21)
(1.15184 -0.000992635 6.34493e-21)
(1.15183 -0.00109744 -2.09258e-20)
(1.15183 -0.0012063 3.40007e-20)
(1.15182 -0.00131954 -5.34658e-21)
(1.1518 -0.0014375 1.91735e-20)
(1.15178 -0.00156056 0)
(1.15176 -0.0016891 2.37566e-20)
(1.15173 -0.00182357 0)
(1.1517 -0.00196441 0)
(1.15166 -0.00211213 1.55211e-20)
(1.15162 -0.00226725 4.6758e-21)
(1.15157 -0.00243034 1.47275e-20)
(1.15151 -0.00260203 4.60422e-20)
(1.15145 -0.00278296 -1.25636e-20)
(1.15139 -0.00297386 0)
(1.15131 -0.00317549 1.61224e-20)
(1.15123 -0.0033887 -4.90617e-21)
(1.15114 -0.00361438 -1.69822e-20)
(1.15104 -0.00385351 1.57831e-21)
(1.15093 -0.00410714 1.43276e-20)
(1.15081 -0.00437641 -1.94085e-20)
(1.15068 -0.00466255 4.35235e-21)
(1.15053 -0.0049669 5.33346e-21)
(1.15038 -0.00529088 1.0941e-20)
(1.15021 -0.00563605 -2.10688e-20)
(1.15002 -0.00600406 4.88931e-21)
(1.14982 -0.00639672 8.15651e-21)
(1.1496 -0.00681595 -3.7611e-22)
(1.14937 -0.00726381 2.1664e-20)
(1.14911 -0.00774249 -1.90017e-20)
(1.13916 -0.0235737 8.80362e-21)
(1.13804 -0.0251937 -4.71914e-20)
(1.13684 -0.0269259 -4.55257e-20)
(1.13555 -0.0287777 -2.61063e-20)
(1.13415 -0.0307579 -2.85979e-20)
(1.13265 -0.032876 0)
(1.13104 -0.0351424 0)
(1.12931 -0.0375678 0)
(1.12746 -0.0401651 0)
(1.12547 -0.042949 -2.81507e-20)
(1.12334 -0.0459345 -2.50447e-20)
(1.12107 -0.0491391 6.59906e-20)
(1.11864 -0.0525844 -4.37288e-20)
(1.11606 -0.0562921 1.26516e-20)
(1.1133 -0.0602893 -1.34471e-20)
(1.11037 -0.0646058 3.2273e-20)
(1.10727 -0.0692779 9.28495e-21)
(1.10398 -0.0743425 4.22681e-20)
(1.10049 -0.0798477 -5.62483e-20)
(1.09682 -0.08585 -5.3378e-20)
(1.09296 -0.0924136 5.27129e-20)
(1.08891 -0.0996121 -4.68092e-22)
(1.08468 -0.10754 -2.72194e-20)
(1.0803 -0.116298 4.06165e-20)
(1.0758 -0.126014 -4.79526e-20)
(1.07122 -0.136846 5.33694e-20)
(1.06664 -0.148978 -5.90649e-20)
(1.06219 -0.162625 2.2239e-20)
(1.05804 -0.178023 3.24251e-20)
(1.05442 -0.195517 -1.65176e-20)
(1.05182 -0.2153 1.70754e-20)
(1.05053 -0.238032 9.80112e-21)
(1.05201 -0.263205 4.23835e-21)
(1.05581 -0.292726 -4.46421e-21)
(1.06693 -0.322586 -1.65707e-20)
(1.07938 -0.360077 4.08624e-21)
(1.11153 -0.387117 5.83371e-21)
(1.13153 -0.433112 -1.98045e-21)
(1.20609 -0.433278 -1.17284e-20)
(1.205 -0.489312 -6.74906e-21)
(1.37684 -0.423391 -3.93619e-20)
(1.07824 -0.442793 0)
(1.15162 -3.60828e-05 4.40229e-20)
(1.15166 -0.000109867 0)
(1.15169 -0.000186244 6.90499e-21)
(1.15172 -0.00026493 -1.46833e-20)
(1.15174 -0.000345532 7.80444e-21)
(1.15176 -0.000428197 0)
(1.15178 -0.000513171 0)
(1.15179 -0.000600646 2.01174e-20)
(1.1518 -0.00069081 -2.0314e-20)
(1.15181 -0.000783875 -2.9494e-20)
(1.15181 -0.000880084 6.15715e-21)
(1.1518 -0.000979691 6.9602e-21)
(1.1518 -0.00108296 -8.42726e-21)
(1.15179 -0.0011902 -1.59532e-20)
(1.15178 -0.0013017 1.76341e-20)
(1.15176 -0.00141781 -1.95491e-20)
(1.15174 -0.00153889 -1.74923e-20)
(1.15171 -0.00166533 -3.67885e-20)
(1.15168 -0.00179753 6.83121e-21)
(1.15164 -0.00193595 -1.21544e-20)
(1.1516 -0.00208106 -8.81392e-21)
(1.15155 -0.00223338 -2.93776e-22)
(1.1515 -0.00239347 5.40648e-21)
(1.15144 -0.00256191 1.59285e-21)
(1.15138 -0.00273937 0)
(1.1513 -0.00292651 0)
(1.15122 -0.00312411 1.39897e-20)
(1.15113 -0.00333297 1.03067e-20)
(1.15104 -0.00355397 1.09229e-20)
(1.15093 -0.00378804 -4.65508e-20)
(1.15081 -0.00403621 -1.85141e-20)
(1.15069 -0.0042996 2.17595e-20)
(1.15055 -0.00457938 -1.4988e-20)
(1.1504 -0.00487686 4.01543e-22)
(1.15023 -0.00519341 1.99061e-20)
(1.15005 -0.00553056 5.02293e-20)
(1.14986 -0.00588988 -2.4986e-20)
(1.14964 -0.00627314 4.89374e-21)
(1.14941 -0.00668217 -1.07816e-20)
(1.14916 -0.00711899 5.92996e-21)
(1.14889 -0.00758572 2.88474e-20)
(1.1486 -0.00808465 3.29991e-20)
(1.14827 -0.00861819 1.791e-20)
(1.14793 -0.00918894 2.16186e-20)
(1.14755 -0.00979967 -1.72195e-20)
(1.13848 -0.022977 -7.04803e-22)
(1.13732 -0.0245505 9.97188e-21)
(1.13607 -0.026233 2.21832e-20)
(1.13473 -0.028032 2.6615e-20)
(1.13328 -0.029956 8.11471e-21)
(1.13172 -0.032014 2.78329e-20)
(1.13005 -0.0342162 0)
(1.12825 -0.036574 0)
(1.12632 -0.0390994 0)
(1.12426 -0.0418065 0)
(1.12205 -0.0447112 -1.40109e-21)
(1.11969 -0.0478304 -4.9435e-20)
(1.11716 -0.0511846 1.01975e-19)
(1.11447 -0.0547968 0)
(1.1116 -0.0586918 0)
(1.10855 -0.0628996 -2.41973e-20)
(1.1053 -0.0674565 -1.91269e-20)
(1.10185 -0.0724002 -2.07065e-20)
(1.09819 -0.0777777 -2.46133e-20)
(1.09431 -0.0836449 6.79045e-20)
(1.09023 -0.0900626 -6.95757e-20)
(1.08592 -0.0971098 4.4917e-20)
(1.0814 -0.104879 -4.09023e-20)
(1.07668 -0.113473 -5.75154e-20)
(1.07177 -0.123025 6.11238e-20)
(1.06672 -0.133689 -6.87106e-20)
(1.0616 -0.145656 8.33246e-20)
(1.05648 -0.159157 -1.70933e-20)
(1.05153 -0.174452 -2.10629e-22)
(1.04696 -0.191901 5.19869e-20)
(1.0432 -0.211757 -5.53615e-20)
(1.04053 -0.234717 1.11718e-20)
(1.04035 -0.260452 5.1448e-21)
(1.04227 -0.290892 -2.30769e-20)
(1.05129 -0.322419 1.00759e-20)
(1.06157 -0.362271 -1.21451e-20)
(1.09226 -0.392907 1.18091e-21)
(1.1107 -0.443671 -1.2125e-21)
(1.18773 -0.448367 -2.47864e-20)
(1.18714 -0.512522 3.99229e-20)
(1.3693 -0.443934 0)
(1.07597 -0.476528 8.36239e-21)
(1.15162 -3.56108e-05 0)
(1.15165 -0.000108529 0)
(1.15168 -0.000183969 0)
(1.15171 -0.00026163 4.09859e-20)
(1.15173 -0.000341168 -8.50717e-21)
(1.15174 -0.000422722 -3.77363e-20)
(1.15176 -0.000506533 4.96351e-21)
(1.15177 -0.000592787 -3.11702e-20)
(1.15178 -0.000681665 5.69006e-21)
(1.15178 -0.00077338 2.41836e-20)
(1.15178 -0.000868171 0)
(1.15177 -0.000966276 -2.31993e-20)
(1.15176 -0.00106796 1.19764e-20)
(1.15175 -0.0011735 -9.0409e-21)
(1.15174 -0.00128322 -1.56793e-20)
(1.15172 -0.00139742 -2.27798e-20)
(1.15169 -0.00151645 3.00517e-20)
(1.15166 -0.00164071 3.45817e-22)
(1.15163 -0.00177057 -1.1362e-20)
(1.15159 -0.00190648 7.50691e-21)
(1.15154 -0.0020489 1.99665e-20)
(1.15149 -0.00219833 -2.73349e-20)
(1.15143 -0.0023553 6.23764e-21)
(1.15137 -0.00252041 -1.55091e-20)
(1.1513 -0.00269426 -3.72863e-21)
(1.15122 -0.00287753 -4.49144e-21)
(1.15114 -0.00307096 -1.43174e-20)
(1.15104 -0.00327532 5.76273e-21)
(1.15094 -0.00349146 -6.1096e-21)
(1.15083 -0.0037203 4.25413e-20)
(1.1507 -0.00396284 -4.21853e-21)
(1.15057 -0.00422014 -1.35147e-20)
(1.15042 -0.00449335 2.04712e-20)
(1.15026 -0.00478372 0)
(1.15009 -0.0050926 -2.65697e-20)
(1.1499 -0.00542144 -3.83836e-20)
(1.1497 -0.00577178 7.66341e-21)
(1.14947 -0.00614532 0)
(1.14923 -0.00654384 -2.37039e-20)
(1.14897 -0.00696927 0)
(1.14868 -0.00742367 1.49621e-21)
(1.14837 -0.00790924 -3.36904e-20)
(1.14803 -0.00842833 0)
(1.14767 -0.00898342 -2.20716e-20)
(1.14727 -0.0095772 2.65183e-20)
(1.14684 -0.0102125 0)
(1.14637 -0.0108922 4.36517e-20)
(1.13782 -0.0223659 0)
(1.13662 -0.0238922 1.14716e-20)
(1.13533 -0.0255242 -1.97601e-20)
(1.13393 -0.0272697 -2.25198e-20)
(1.13243 -0.0291364 0)
(1.13082 -0.0311335 -2.73361e-20)
(1.12908 -0.0332713 -4.3448e-20)
(1.12722 -0.0355601 -6.26243e-20)
(1.12523 -0.038012 -3.63239e-20)
(1.12309 -0.0406416 1.6277e-20)
(1.1208 -0.0434637 3.70483e-20)
(1.11835 -0.0464956 -2.1215e-20)
(1.11573 -0.049757 -3.56883e-20)
(1.11294 -0.053269 0)
(1.10995 -0.0570595 3.19104e-20)
(1.10677 -0.0611555 4.55546e-20)
(1.10338 -0.0655931 -5.1119e-20)
(1.09978 -0.070411 -5.88371e-20)
(1.09595 -0.0756557 1.2667e-20)
(1.09188 -0.0813782 -6.03938e-20)
(1.08757 -0.0876445 -4.28446e-20)
(1.08301 -0.0945337 1.08281e-20)
(1.0782 -0.102131 3.0737e-20)
(1.07314 -0.110547 5.86224e-20)
(1.06785 -0.119909 -5.52702e-20)
(1.06234 -0.130383 -6.19227e-20)
(1.05666 -0.14216 2.59581e-20)
(1.05089 -0.155483 9.12366e-21)
(1.04516 -0.170612 1.03736e-20)
(1.03962 -0.187946 -6.50515e-20)
(1.03468 -0.207786 -4.15508e-21)
(1.03058 -0.230864 6.53103e-20)
(1.02866 -0.257023 0)
(1.02852 -0.288212 4.92267e-20)
(1.03519 -0.321263 -4.52417e-21)
(1.04289 -0.363369 1.71724e-20)
(1.07157 -0.397615 0)
(1.08768 -0.453451 2.61455e-21)
(1.16675 -0.46326 -2.69036e-21)
(1.1655 -0.536835 -1.11297e-20)
(1.35873 -0.466206 9.10737e-21)
(1.07197 -0.515279 7.12246e-20)
(1.15162 -3.51289e-05 2.79668e-20)
(1.15165 -0.000107143 -3.16736e-20)
(1.15167 -0.000181611 -8.15352e-21)
(1.1517 -0.000258212 -3.37074e-20)
(1.15171 -0.000336651 0)
(1.15173 -0.000417059 3.85877e-20)
(1.15174 -0.000499664 5.39908e-21)
(1.15175 -0.000584657 1.80541e-20)
(1.15175 -0.000672214 -6.33843e-21)
(1.15175 -0.00076254 -1.83903e-22)
(1.15175 -0.000855859 -2.3233e-20)
(1.15174 -0.00095241 3.1493e-20)
(1.15173 -0.00105245 4.54562e-21)
(1.15172 -0.00115625 -2.50203e-20)
(1.1517 -0.00126411 2.65737e-20)
(1.15167 -0.00137634 1.74154e-20)
(1.15165 -0.00149327 0)
(1.15161 -0.00161527 -1.52531e-20)
(1.15158 -0.00174272 -4.25368e-21)
(1.15153 -0.00187604 3.46431e-21)
(1.15148 -0.00201569 -2.01373e-20)
(1.15143 -0.00216213 4.65025e-20)
(1.15137 -0.0023159 6.7489e-21)
(1.1513 -0.00247756 -2.14755e-20)
(1.15123 -0.0026477 -4.29202e-21)
(1.15114 -0.00282697 2.37925e-20)
(1.15105 -0.00301609 0)
(1.15096 -0.00321582 -6.21578e-21)
(1.15085 -0.00342696 6.58979e-21)
(1.15073 -0.00365041 -1.50325e-20)
(1.1506 -0.00388713 0)
(1.15046 -0.00413814 5.16396e-21)
(1.1503 -0.00440457 -3.45346e-20)
(1.15013 -0.00468762 6.22899e-21)
(1.14995 -0.00498858 7.61958e-21)
(1.14975 -0.00530886 -1.65022e-20)
(1.14954 -0.00564995 3.38502e-20)
(1.1493 -0.00601348 -2.75003e-20)
(1.14905 -0.00640116 3.06899e-20)
(1.14877 -0.00681488 2.21517e-20)
(1.14848 -0.0072566 -4.00715e-20)
(1.14815 -0.00772844 8.93681e-21)
(1.1478 -0.00823267 0)
(1.14742 -0.00877169 0)
(1.147 -0.00934808 -5.54508e-20)
(1.14655 -0.00996457 -3.24409e-20)
(1.14607 -0.010624 -4.50459e-20)
(1.14554 -0.0113295 3.13237e-20)
(1.14497 -0.0120843 0)
(1.14435 -0.0128918 -7.12983e-21)
(1.14368 -0.0137557 -6.10774e-22)
(1.14295 -0.0146798 4.38973e-20)
(1.14217 -0.0156683 4.20729e-20)
(1.14132 -0.0167256 6.16096e-21)
(1.1404 -0.0178564 -1.36009e-20)
(1.13941 -0.0190657 3.79739e-20)
(1.13834 -0.0203587 -3.49511e-20)
(1.13719 -0.0217412 -4.16297e-20)
(1.13595 -0.0232195 0)
(1.13461 -0.0248004 5.36422e-20)
(1.13316 -0.0264911 6.9441e-20)
(1.13161 -0.0282996 1.8174e-20)
(1.12995 -0.0302351 9.71957e-21)
(1.12815 -0.0323068 4.52496e-20)
(1.12623 -0.0345253 5.17572e-20)
(1.12417 -0.0369029 2.95856e-20)
(1.12196 -0.0394533 0)
(1.11959 -0.0421909 0)
(1.11706 -0.0451328 1.1641e-20)
(1.11434 -0.0482986 -2.56411e-20)
(1.11145 -0.051711 7.34152e-20)
(1.10835 -0.0553933 -4.12263e-20)
(1.10505 -0.0593754 -2.79727e-20)
(1.10153 -0.063691 4.22142e-20)
(1.09777 -0.0683772 -1.774e-21)
(1.09377 -0.0734809 0)
(1.08952 -0.0790549 6.17189e-20)
(1.08499 -0.0851645 4.41552e-20)
(1.08019 -0.0918815 2.23791e-21)
(1.07509 -0.0992975 -1.10705e-20)
(1.06971 -0.107523 0)
(1.06403 -0.116682 -1.75246e-20)
(1.05807 -0.126939 1.12287e-19)
(1.05185 -0.138496 -2.6009e-20)
(1.04543 -0.151595 4.192e-20)
(1.03891 -0.16652 2.3697e-20)
(1.03241 -0.183674 1.20413e-20)
(1.02629 -0.20341 -1.7463e-20)
(1.02073 -0.226488 -1.028e-20)
(1.01698 -0.252902 0)
(1.01465 -0.284672 -3.40366e-20)
(1.01869 -0.319034 1.30994e-21)
(1.02342 -0.363226 6.23258e-21)
(1.04947 -0.401032 -4.01178e-22)
(1.06241 -0.462184 -1.38599e-21)
(1.14291 -0.477661 1.85718e-21)
(1.13994 -0.561938 -2.49938e-21)
(1.34552 -0.490124 -1.34053e-20)
(1.06231 -0.557371 -5.76044e-20)
(1.15161 -3.46364e-05 -2.86411e-20)
(1.15164 -0.000105702 5.82443e-20)
(1.15167 -0.000179166 8.8236e-21)
(1.15169 -0.00025468 9.44313e-21)
(1.1517 -0.000331988 4.13962e-20)
(1.15171 -0.000411214 -1.0721e-20)
(1.15172 -0.000492581 -2.38329e-20)
(1.15173 -0.000576272 -2.43511e-20)
(1.15173 -0.000662462 0)
(1.15173 -0.000751351 0)
(1.15172 -0.000843154 3.12864e-20)
(1.15171 -0.000938109 4.48376e-21)
(1.1517 -0.00103646 -4.75281e-21)
(1.15168 -0.00113847 2.0688e-20)
(1.15166 -0.00124442 -6.00793e-21)
(1.15163 -0.00135461 6.3687e-21)
(1.1516 -0.00146937 7.40047e-21)
(1.15157 -0.00158905 7.77538e-21)
(1.15153 -0.00171402 -1.37681e-20)
(1.15148 -0.00184468 -5.92566e-21)
(1.15143 -0.00198147 5.76793e-21)
(1.15137 -0.00212485 -3.70594e-20)
(1.15131 -0.00227532 2.13327e-20)
(1.15123 -0.00243342 -4.10145e-21)
(1.15116 -0.00259974 4.34809e-21)
(1.15107 -0.00277491 -1.97047e-20)
(1.15097 -0.0029596 0)
(1.15087 -0.00315455 0)
(1.15076 -0.00336054 -7.57911e-21)
(1.15063 -0.00357844 -8.93663e-21)
(1.15049 -0.00380917 1.92558e-20)
(1.15035 -0.00405372 2.18642e-20)
(1.15019 -0.00431317 3.00464e-20)
(1.15001 -0.00458868 -6.68558e-21)
(1.14982 -0.00488149 -1.60801e-20)
(1.14961 -0.00519296 1.75194e-20)
(1.14939 -0.00552454 -2.52804e-20)
(1.14914 -0.00587778 2.84113e-20)
(1.14888 -0.00625435 0)
(1.14859 -0.00665602 -2.96917e-20)
(1.14828 -0.00708472 0)
(1.14794 -0.00754249 2.02177e-20)
(1.14757 -0.00803152 -5.8925e-21)
(1.14718 -0.0085541 6.24895e-21)
(1.14674 -0.0091127 2.90183e-20)
(1.14628 -0.00970996 3.32192e-20)
(1.14577 -0.0103487 0)
(1.14522 -0.0110318 -2.17866e-20)
(1.14463 -0.0117624 -6.63288e-21)
(1.14399 -0.012544 7.03579e-21)
(1.14329 -0.0133799 8.70883e-21)
(1.14254 -0.014274 -9.23877e-21)
(1.14173 -0.0152303 -4.30816e-20)
(1.14085 -0.0162531 -2.56297e-20)
(1.1399 -0.0173466 -2.93679e-20)
(1.13888 -0.018516 3.365e-20)
(1.13777 -0.0197665 9.86371e-21)
(1.13658 -0.0211034 6.50213e-20)
(1.1353 -0.0225332 3.08122e-20)
(1.13391 -0.0240622 -1.36951e-20)
(1.13242 -0.0256976 -3.99009e-20)
(1.13082 -0.0274474 -3.66741e-20)
(1.1291 -0.0293198 4.34048e-20)
(1.12725 -0.0313244 -6.23359e-20)
(1.12527 -0.0334721 -1.4891e-20)
(1.12314 -0.0357744 8.29016e-21)
(1.12086 -0.0382444 6.61454e-22)
(1.11842 -0.0408965 -1.00564e-20)
(1.1158 -0.0437477 4.82516e-20)
(1.113 -0.0468171 0)
(1.11001 -0.0501252 -6.07199e-20)
(1.1068 -0.0536971 -3.57409e-20)
(1.10338 -0.057561 0)
(1.09973 -0.0617494 4.6312e-20)
(1.09583 -0.0663026 5.09074e-20)
(1.09166 -0.071263 5.98571e-20)
(1.08722 -0.0766819 0)
(1.08249 -0.0826219 0)
(1.07744 -0.0891593 -3.10104e-20)
(1.07207 -0.0963858 3.7692e-20)
(1.06637 -0.104404 0)
(1.06031 -0.113344 4.45735e-20)
(1.05391 -0.123368 -1.70562e-20)
(1.04717 -0.134674 0)
(1.04011 -0.14751 2.27286e-21)
(1.03281 -0.162176 -4.70614e-20)
(1.02536 -0.179087 1.36001e-20)
(1.01805 -0.198623 4.19926e-20)
(1.01101 -0.221586 -2.23258e-20)
(1.00537 -0.248113 -8.3364e-21)
(1.00074 -0.280259 0)
(1.00188 -0.315685 0)
(1.00325 -0.361719 -3.14967e-20)
(1.02595 -0.402914 1.40502e-20)
(1.03477 -0.469565 -2.23628e-21)
(1.11593 -0.491231 8.50609e-22)
(1.10933 -0.587647 -4.07486e-20)
(1.32833 -0.515439 2.2578e-20)
(1.04763 -0.604041 -1.46334e-20)
(1.15161 -3.41339e-05 3.27872e-20)
(1.15164 -0.000104213 -2.60587e-20)
(1.15166 -0.000176642 -9.52942e-21)
(1.15168 -0.000251039 -1.02088e-20)
(1.15169 -0.000327179 -3.70061e-20)
(1.1517 -0.000405192 1.16734e-20)
(1.15171 -0.000485289 4.39579e-20)
(1.15171 -0.000567641 0)
(1.15171 -0.000652427 0)
(1.1517 -0.00073984 -4.08642e-20)
(1.1517 -0.000830091 8.59127e-21)
(1.15168 -0.000923401 0)
(1.15167 -0.00102001 -2.14457e-20)
(1.15165 -0.00112017 2.35997e-20)
(1.15162 -0.00122416 -1.95466e-20)
(1.15159 -0.00133226 -6.88499e-21)
(1.15156 -0.00144479 0)
(1.15152 -0.00156209 0)
(1.15148 -0.00168451 1.38763e-20)
(1.15143 -0.00181243 4.21038e-21)
(1.15137 -0.00194628 6.218e-21)
(1.15131 -0.00208651 -1.35691e-20)
(1.15124 -0.0022336 -2.30001e-20)
(1.15117 -0.00238806 1.7495e-20)
(1.15109 -0.00255046 1.97027e-20)
(1.15099 -0.0027214 1.66026e-20)
(1.15089 -0.00290155 -1.91355e-20)
(1.15079 -0.00309159 -2.83655e-20)
(1.15067 -0.0032923 -4.06789e-21)
(1.15054 -0.0035045 2.63337e-20)
(1.15039 -0.00372907 -5.04948e-20)
(1.15024 -0.00396698 -1.68767e-20)
(1.15007 -0.00421927 -3.33447e-20)
(1.14989 -0.00448704 2.97045e-20)
(1.14969 -0.00477149 2.46423e-20)
(1.14947 -0.00507393 3.91464e-20)
(1.14924 -0.00539574 0)
(1.14899 -0.00573843 -3.18893e-20)
(1.14871 -0.00610357 4.32362e-20)
(1.14841 -0.00649292 -7.83359e-21)
(1.14809 -0.00690829 0)
(1.14774 -0.00735165 6.32778e-21)
(1.14735 -0.0078251 2.50923e-20)
(1.14694 -0.00833086 -3.48336e-20)
(1.14649 -0.00887134 -4.0434e-20)
(1.14601 -0.009449 8.72602e-21)
(1.14549 -0.0100666 -1.56895e-20)
(1.14492 -0.0107269 -2.98394e-20)
(1.1443 -0.011433 0)
(1.14364 -0.0121882 0)
(1.14292 -0.0129957 4.54829e-20)
(1.14214 -0.0138592 -5.13099e-20)
(1.1413 -0.0147826 0)
(1.1404 -0.01577 -9.23947e-22)
(1.13942 -0.0168259 6.92666e-20)
(1.13836 -0.0179551 -4.29802e-20)
(1.13722 -0.0191624 -4.08814e-20)
(1.13599 -0.0204533 -4.52929e-20)
(1.13467 -0.0218337 -2.59377e-20)
(1.13324 -0.0233102 -3.06745e-20)
(1.13171 -0.0248896 3.51038e-20)
(1.13006 -0.0265796 0)
(1.12829 -0.0283885 1.41903e-21)
(1.12639 -0.0303257 3.74612e-20)
(1.12434 -0.0324013 4.33755e-20)
(1.12215 -0.0346267 0)
(1.1198 -0.0370147 -3.9159e-20)
(1.11729 -0.0395799 4.47043e-20)
(1.11459 -0.0423385 1.53376e-21)
(1.1117 -0.0453075 4.39638e-20)
(1.10861 -0.0485095 -1.58042e-20)
(1.10531 -0.051969 3.66453e-20)
(1.10177 -0.0557125 -4.30455e-20)
(1.09799 -0.0597725 -4.74811e-20)
(1.09394 -0.0641867 0)
(1.08962 -0.0689975 -6.13655e-20)
(1.08499 -0.0742573 -4.51864e-20)
(1.08006 -0.0800259 -3.11453e-20)