/*--------------------------------*- C++ -*----------------------------------*\
  =========                 |
  \\      /  F ield         | OpenFOAM: The Open Source CFD Toolbox
   \\    /   O peration     | Website:  https://openfoam.org
    \\  /    A nd           | Version:  9
     \\/     M anipulation  |
\*---------------------------------------------------------------------------*/
FoamFile
{
    format      ascii;
    class       volScalarField;
    location    "1500";
    object      gammaInt;
}
// * * * * * * * * * * * * * * * * * * * * * * * * * * * * * * * * * * * * * //

dimensions      [0 0 0 0 0 0 0];

internalField   nonuniform List<scalar> 
13617
(
0.992782
0.996175
0.996735
0.996993
0.997088
0.997115
0.997099
0.997055
0.996987
0.9969
0.996798
0.996684
0.996563
0.996437
0.996306
0.996174
0.996043
0.995917
0.995801
0.995699
0.995616
0.995559
0.995533
0.995544
0.995599
0.995704
0.995864
0.996078
0.996337
0.99661
0.99685
0.996996
0.996984
0.996733
0.996218
0.995474
0.994528
0.993404
0.992121
0.990696
0.989146
0.98749
0.985749
0.983948
0.982115
0.980279
0.978469
0.976717
0.975052
0.973505
0.972104
0.970878
0.969853
0.969053
0.968502
0.96822
0.968158
0.968356
0.968849
0.969636
0.970657
0.971936
0.973461
0.975182
0.977005
0.978696
0.9798
0.979716
0.977969
0.974627
0.970153
0.96591
0.963746
0.958568
0.927652
0.839342
0.66431
0.456006
0.369487
0.405608
0.412768
0.446754
0.427203
0.382482
0.327818
0.280406
0.992735
0.996149
0.996708
0.996966
0.99706
0.997087
0.997071
0.997027
0.996959
0.996871
0.996768
0.996654
0.996532
0.996404
0.996271
0.996135
0.996001
0.995871
0.99575
0.995642
0.995552
0.995486
0.995451
0.995452
0.995496
0.995589
0.995737
0.995941
0.996191
0.996463
0.996711
0.996879
0.996908
0.996719
0.996263
0.995567
0.99466
0.993567
0.992307
0.990898
0.989357
0.987702
0.985957
0.984145
0.982294
0.980435
0.978599
0.976816
0.975118
0.973537
0.972103
0.970846
0.969793
0.968971
0.968403
0.968097
0.967952
0.968018
0.968345
0.968937
0.969729
0.970735
0.97194
0.973289
0.974689
0.975952
0.976702
0.976402
0.974553
0.970994
0.965959
0.960479
0.956297
0.950083
0.924764
0.859352
0.719434
0.486972
0.35102
0.38378
0.477317
0.463291
0.395008
0.384217
0.374738
0.324444
0.992698
0.996119
0.99668
0.996937
0.997031
0.997058
0.997043
0.996999
0.996932
0.996844
0.996741
0.996627
0.996504
0.996374
0.996239
0.996101
0.995964
0.99583
0.995703
0.995589
0.995492
0.995418
0.995373
0.995364
0.995396
0.995477
0.995613
0.995805
0.996046
0.996314
0.996566
0.996752
0.996816
0.996686
0.996292
0.995648
0.994784
0.993726
0.992493
0.991104
0.989576
0.987929
0.986184
0.984366
0.982503
0.980628
0.978769
0.976962
0.975237
0.973628
0.972165
0.970881
0.969805
0.968964
0.968384
0.968059
0.967852
0.967811
0.96799
0.9684
0.968979
0.969729
0.970634
0.97164
0.972654
0.973507
0.973885
0.973328
0.971369
0.967732
0.962467
0.956338
0.950879
0.944124
0.923481
0.874988
0.775529
0.543413
0.354747
0.334384
0.471162
0.420972
0.361173
0.359395
0.38243
0.371548
0.992664
0.996088
0.99665
0.996908
0.997003
0.99703
0.997016
0.996974
0.996907
0.99682
0.996718
0.996603
0.99648
0.996349
0.996213
0.996073
0.995932
0.995794
0.995663
0.995543
0.995439
0.995356
0.995302
0.995282
0.995302
0.995371
0.995493
0.995672
0.995902
0.996163
0.996417
0.996617
0.996711
0.996633
0.996304
0.995716
0.994899
0.99388
0.99268
0.991315
0.989805
0.988169
0.986429
0.984609
0.982739
0.98085
0.978974
0.977145
0.975396
0.973761
0.972272
0.970963
0.969864
0.969004
0.968409
0.968075
0.967825
0.967698
0.967748
0.967992
0.968374
0.968885
0.969503
0.970188
0.970848
0.971321
0.971342
0.970516
0.968422
0.964744
0.959411
0.952966
0.946706
0.939657
0.922774
0.886264
0.822772
0.613525
0.390123
0.297693
0.404552
0.422643
0.36266
0.348821
0.381676
0.420067
0.99263
0.996056
0.996621
0.99688
0.996975
0.997004
0.996992
0.996951
0.996885
0.9968
0.996698
0.996584
0.996461
0.99633
0.996192
0.996051
0.995907
0.995766
0.99563
0.995504
0.995393
0.995303
0.995238
0.995207
0.995215
0.99527
0.995378
0.995543
0.99576
0.996013
0.996266
0.996476
0.996595
0.996562
0.996298
0.995769
0.995004
0.994029
0.992865
0.99153
0.990043
0.988422
0.986691
0.984874
0.983001
0.981103
0.979213
0.977365
0.975595
0.973936
0.972423
0.97109
0.969968
0.969089
0.968478
0.968135
0.967858
0.967664
0.967599
0.967691
0.96789
0.968178
0.96853
0.968902
0.969225
0.969345
0.969029
0.967928
0.96568
0.961966
0.956645
0.950078
0.943345
0.936188
0.922333
0.894665
0.85732
0.685474
0.456501
0.297516
0.314695
0.407308
0.355956
0.338338
0.369746
0.43959
0.992597
0.996023
0.996591
0.996852
0.996949
0.99698
0.99697
0.996931
0.996867
0.996783
0.996683
0.99657
0.996447
0.996316
0.996178
0.996035
0.99589
0.995745
0.995605
0.995474
0.995356
0.995257
0.995183
0.99514
0.995136
0.995176
0.995269
0.995418
0.995622
0.995864
0.996113
0.996329
0.996468
0.996475
0.996273
0.995807
0.995097
0.99417
0.993047
0.991747
0.990287
0.988687
0.986969
0.985159
0.983286
0.981383
0.979483
0.977621
0.975832
0.974152
0.972617
0.971261
0.970117
0.969218
0.968591
0.968239
0.967943
0.967696
0.967533
0.967485
0.967513
0.967592
0.967696
0.967771
0.967762
0.967548
0.966911
0.965545
0.963131
0.959375
0.954105
0.947554
0.9406
0.933437
0.922011
0.901164
0.87944
0.750568
0.53927
0.341895
0.279583
0.325998
0.360171
0.335502
0.354539
0.420712
0.992562
0.99599
0.996562
0.996825
0.996924
0.996958
0.99695
0.996914
0.996852
0.996771
0.996672
0.996561
0.996439
0.996308
0.99617
0.996026
0.995879
0.995731
0.995587
0.995451
0.995326
0.995219
0.995135
0.995081
0.995064
0.99509
0.995167
0.995299
0.995487
0.995717
0.995959
0.996178
0.996333
0.996373
0.996229
0.995827
0.995176
0.994301
0.993224
0.991962
0.990534
0.988959
0.98726
0.985462
0.983595
0.981691
0.979785
0.977911
0.976107
0.974409
0.972853
0.971476
0.970311
0.969393
0.968751
0.968385
0.968074
0.967787
0.96754
0.967365
0.967231
0.967115
0.966989
0.966788
0.966457
0.965912
0.964969
0.963347
0.960766
0.956963
0.951766
0.945326
0.938325
0.931217
0.921701
0.906233
0.893884
0.804711
0.623824
0.422686
0.299894
0.282438
0.326738
0.328425
0.345949
0.395333
0.992528
0.995956
0.996533
0.996799
0.996901
0.996937
0.996933
0.9969
0.996841
0.996762
0.996666
0.996556
0.996436
0.996306
0.996168
0.996024
0.995875
0.995726
0.995578
0.995436
0.995305
0.99519
0.995097
0.995031
0.995
0.995011
0.995072
0.995187
0.995358
0.995573
0.995806
0.996024
0.996191
0.996259
0.996166
0.995828
0.995239
0.994419
0.993392
0.992174
0.990783
0.989238
0.987562
0.985781
0.983924
0.982024
0.980115
0.978234
0.976418
0.974705
0.973131
0.971734
0.97055
0.969613
0.968957
0.968574
0.968246
0.967929
0.967613
0.967322
0.967037
0.966739
0.966397
0.965945
0.965309
0.964436
0.963192
0.961324
0.95858
0.954728
0.949615
0.943341
0.936417
0.929426
0.921369
0.910105
0.903654
0.847277
0.700875
0.514426
0.363222
0.292447
0.293541
0.324419
0.339312
0.375283
0.992492
0.995921
0.996504
0.996774
0.996879
0.996919
0.996918
0.996888
0.996833
0.996757
0.996664
0.996557
0.996439
0.99631
0.996173
0.996029
0.995879
0.995727
0.995576
0.99543
0.995293
0.99517
0.995067
0.99499
0.994945
0.994941
0.994984
0.995082
0.995234
0.995433
0.995655
0.995869
0.996043
0.996134
0.996085
0.99581
0.995283
0.994523
0.993549
0.992378
0.991029
0.98952
0.987873
0.986113
0.984271
0.982379
0.980473
0.978588
0.976764
0.975038
0.973449
0.972035
0.970833
0.969877
0.969209
0.968804
0.96846
0.968117
0.967743
0.96735
0.966925
0.966456
0.965913
0.965228
0.964319
0.963122
0.961571
0.959463
0.956561
0.952663
0.947641
0.94156
0.934823
0.928003
0.921012
0.912962
0.910466
0.879323
0.766224
0.60308
0.447195
0.342339
0.301648
0.31083
0.337363
0.361922
0.992456
0.995886
0.996476
0.99675
0.996859
0.996903
0.996906
0.996881
0.996829
0.996757
0.996667
0.996562
0.996447
0.99632
0.996184
0.99604
0.99589
0.995737
0.995583
0.995433
0.99529
0.995159
0.995047
0.994958
0.9949
0.99488
0.994906
0.994984
0.995117
0.995298
0.995506
0.995714
0.995891
0.995999
0.995988
0.995773
0.995309
0.99461
0.993693
0.992574
0.991271
0.989803
0.988189
0.986456
0.984633
0.982755
0.980855
0.978971
0.977142
0.975407
0.973805
0.972376
0.971157
0.970186
0.969507
0.969077
0.968715
0.968347
0.967924
0.967441
0.966888
0.966258
0.965527
0.964629
0.963475
0.961985
0.96012
0.957764
0.954704
0.950766
0.945836
0.939968
0.933483
0.926877
0.920663
0.914996
0.915266
0.902631
0.818759
0.681891
0.534676
0.414494
0.342504
0.320416
0.333464
0.355524
0.992418
0.995851
0.996448
0.996727
0.99684
0.996889
0.996897
0.996876
0.996829
0.99676
0.996674
0.996573
0.99646
0.996336
0.996201
0.996058
0.995908
0.995754
0.995598
0.995444
0.995295
0.995157
0.995036
0.994935
0.994864
0.994828
0.994836
0.994894
0.995007
0.995169
0.995362
0.99556
0.995736
0.995858
0.995877
0.995717
0.995315
0.994678
0.993821
0.992758
0.991506
0.990082
0.988506
0.986805
0.985008
0.983147
0.981258
0.97938
0.97755
0.97581
0.974198
0.972756
0.971522
0.970538
0.969849
0.969391
0.96901
0.968617
0.968152
0.967591
0.966922
0.966142
0.965234
0.964141
0.962768
0.961022
0.958861
0.956237
0.953009
0.949027
0.944188
0.938549
0.932352
0.92602
0.920363
0.916368
0.918636
0.91883
0.859088
0.748001
0.616402
0.494173
0.403263
0.3536
0.341645
0.353659
0.99238
0.995814
0.996421
0.996706
0.996823
0.996877
0.99689
0.996874
0.996832
0.996767
0.996685
0.996588
0.996478
0.996357
0.996224
0.996083
0.995933
0.995778
0.99562
0.995463
0.99531
0.995165
0.995034
0.994923
0.994837
0.994786
0.994775
0.994814
0.994906
0.995047
0.995222
0.995408
0.99558
0.99571
0.995754
0.995643
0.9953
0.994726
0.993931
0.992927
0.991729
0.990354
0.988823
0.987158
0.985391
0.983553
0.981681
0.979812
0.977986
0.976243
0.974625
0.973173
0.971926
0.97093
0.970232
0.969747
0.969343
0.968925
0.968424
0.967796
0.967024
0.966105
0.965033
0.963758
0.962189
0.960224
0.957808
0.95491
0.951487
0.947444
0.942694
0.937284
0.931401
0.925386
0.920146
0.917262
0.920951
0.928531
0.888626
0.801019
0.687923
0.572202
0.473083
0.403534
0.36719
0.358973
0.992341
0.995779
0.996395
0.996685
0.996808
0.996868
0.996886
0.996875
0.996838
0.996778
0.9967
0.996607
0.996501
0.996383
0.996253
0.996113
0.995965
0.99581
0.995651
0.995491
0.995333
0.995182
0.995042
0.99492
0.994821
0.994754
0.994725
0.994743
0.994813
0.994933
0.995088
0.995259
0.995424
0.995558
0.995622
0.995552
0.995266
0.994754
0.994022
0.993079
0.991939
0.990617
0.989134
0.987511
0.985779
0.983969
0.982118
0.980263
0.978444
0.976704
0.975082
0.973622
0.972364
0.97136
0.970655
0.970143
0.969714
0.969271
0.968736
0.968052
0.967189
0.966146
0.964922
0.963479
0.961734
0.959582
0.956953
0.953821
0.950173
0.946033
0.941345
0.936155
0.930613
0.924951
0.92005
0.91784
0.92247
0.934096
0.909454
0.841853
0.747527
0.643355
0.544313
0.463099
0.407295
0.377966
0.9923
0.995742
0.996369
0.996666
0.996795
0.996861
0.996885
0.99688
0.996848
0.996793
0.99672
0.996631
0.996529
0.996415
0.996288
0.99615
0.996004
0.995849
0.995689
0.995527
0.995365
0.995208
0.99506
0.994927
0.994815
0.994732
0.994685
0.994682
0.99473
0.994826
0.994961
0.995115
0.99527
0.995403
0.995481
0.995446
0.995211
0.994759
0.994091
0.993211
0.992132
0.990868
0.989436
0.98786
0.986168
0.984391
0.982565
0.980729
0.978923
0.977188
0.975567
0.974102
0.972835
0.971823
0.971113
0.970575
0.970121
0.969653
0.969089
0.968357
0.967416
0.966264
0.9649
0.963301
0.961397
0.959086
0.956289
0.952971
0.949131
0.944844
0.940164
0.935159
0.929952
0.924675
0.920085
0.918246
0.923411
0.937139
0.92371
0.87216
0.795173
0.704919
0.611954
0.52649
0.457364
0.409843
0.992259
0.995706
0.996343
0.996648
0.996784
0.996856
0.996886
0.996887
0.996861
0.996812
0.996744
0.99666
0.996562
0.996451
0.996328
0.996193
0.996048
0.995895
0.995735
0.995571
0.995406
0.995243
0.995088
0.994945
0.99482
0.994721
0.994655
0.994632
0.994656
0.994729
0.994842
0.994977
0.995119
0.995248
0.995334
0.995327
0.995138
0.994743
0.994137
0.993322
0.992306
0.991102
0.989726
0.988201
0.986553
0.984815
0.98302
0.981207
0.979418
0.977692
0.976074
0.974607
0.973335
0.972318
0.971602
0.971041
0.970564
0.970072
0.96948
0.968709
0.967706
0.966458
0.964969
0.963228
0.96118
0.958731
0.955801
0.952349
0.948366
0.943947
0.939208
0.934316
0.929399
0.92452
0.920253
0.918613
0.923947
0.938662
0.933313
0.894034
0.831787
0.755867
0.672735
0.589148
0.512877
0.451348
0.992217
0.995669
0.996319
0.996631
0.996774
0.996853
0.99689
0.996898
0.996877
0.996834
0.996771
0.996692
0.996599
0.996493
0.996373
0.996242
0.9961
0.995948
0.995788
0.995623
0.995455
0.995287
0.995125
0.994973
0.994835
0.994721
0.994637
0.994592
0.994594
0.994642
0.994731
0.994845
0.994972
0.995093
0.995184
0.995197
0.995048
0.994706
0.99416
0.993409
0.992458
0.991317
0.990001
0.988531
0.986932
0.985236
0.983477
0.981692
0.979923
0.978211
0.9766
0.975134
0.973858
0.972837
0.972116
0.971538
0.971042
0.970529
0.969912
0.969109
0.968055
0.966727
0.96513
0.963262
0.961085
0.958516
0.955483
0.951938
0.947864
0.943364
0.938578
0.933706
0.92899
0.92447
0.920535
0.919006
0.924249
0.939272
0.939743
0.909543
0.859036
0.796236
0.724767
0.64761
0.5699
0.499184
0.992173
0.995633
0.996296
0.996616
0.996766
0.996853
0.996897
0.996911
0.996897
0.996859
0.996802
0.996729
0.996641
0.996539
0.996424
0.996296
0.996156
0.996006
0.995848
0.995682
0.995512
0.99534
0.995172
0.99501
0.994861
0.994732
0.99463
0.994564
0.994542
0.994566
0.99463
0.994721
0.99483
0.99494
0.99503
0.995058
0.994941
0.994647
0.994159
0.993472
0.992586
0.99151
0.990257
0.988845
0.987299
0.98565
0.983931
0.982179
0.980435
0.97874
0.977139
0.975676
0.974401
0.973377
0.972652
0.972062
0.971552
0.971022
0.970386
0.969558
0.968464
0.967073
0.965385
0.963407
0.961114
0.958444
0.955329
0.951724
0.947613
0.943083
0.938289
0.933446
0.928839
0.924577
0.920932
0.919473
0.924453
0.939322
0.944054
0.920483
0.878793
0.82702
0.76729
0.699449
0.625126
0.550144
0.992129
0.995596
0.996273
0.996602
0.996761
0.996855
0.996906
0.996927
0.996919
0.996888
0.996836
0.996768
0.996686
0.996589
0.996478
0.996354
0.996218
0.996071
0.995914
0.995749
0.995577
0.995402
0.995228
0.995058
0.994898
0.994754
0.994634
0.994548
0.994502
0.9945
0.994539
0.994606
0.994695
0.994791
0.994877
0.994911
0.99482
0.994569
0.994135
0.993509
0.992688
0.991678
0.99049
0.989139
0.987651
0.986052
0.984377
0.982662
0.980947
0.979274
0.977686
0.976229
0.974955
0.97393
0.973202
0.972607
0.972088
0.971549
0.970899
0.970054
0.968934
0.967497
0.965738
0.963667
0.961274
0.958516
0.955337
0.951701
0.94759
0.943081
0.938327
0.933546
0.929056
0.924988
0.921548
0.920106
0.924678
0.939058
0.94694
0.92822
0.892889
0.849674
0.800485
0.743165
0.675822
0.601215
0.992084
0.99556
0.996251
0.99659
0.996757
0.996859
0.996918
0.996946
0.996945
0.996919
0.996874
0.996811
0.996734
0.996642
0.996536
0.996417
0.996285
0.996141
0.995986
0.995822
0.99565
0.995472
0.995293
0.995115
0.994944
0.994787
0.99465
0.994543
0.994474
0.994447
0.994458
0.994501
0.994567
0.994647
0.994724
0.994759
0.994687
0.994471
0.994087
0.993519
0.992763
0.99182
0.990698
0.989411
0.987982
0.986439
0.984811
0.983137
0.981454
0.979806
0.978235
0.976787
0.975516
0.974491
0.973758
0.973166
0.972647
0.972104
0.97145
0.970599
0.969465
0.967998
0.966189
0.964044
0.96157
0.958739
0.955513
0.951865
0.947781
0.943332
0.938663
0.933989
0.929639
0.925772
0.922546
0.921091
0.925164
0.938748
0.94889
0.93377
0.902841
0.865782
0.825216
0.778156
0.719955
0.649661
0.992038
0.995524
0.996231
0.996579
0.996755
0.996865
0.996932
0.996967
0.996973
0.996954
0.996914
0.996857
0.996785
0.996699
0.996598
0.996484
0.996357
0.996216
0.996064
0.995902
0.995729
0.99555
0.995367
0.995182
0.995002
0.994831
0.994678
0.99455
0.994458
0.994405
0.99439
0.994407
0.994449
0.994509
0.994574
0.994602
0.994542
0.994356
0.994016
0.993504
0.992809
0.991932
0.990877
0.989656
0.98829
0.986804
0.985228
0.983597
0.981951
0.980331
0.978779
0.977342
0.976077
0.975051
0.974313
0.973733
0.973222
0.972686
0.972038
0.97119
0.970056
0.968579
0.966739
0.964543
0.962007
0.95912
0.95586
0.952215
0.948179
0.943818
0.93927
0.934746
0.930565
0.926923
0.923943
0.922538
0.926125
0.938705
0.950032
0.937892
0.910027
0.877031
0.842798
0.804641
0.75623
0.69313
0.991991
0.995488
0.996211
0.99657
0.996755
0.996874
0.996949
0.996991
0.997003
0.99699
0.996957
0.996906
0.996839
0.996758
0.996663
0.996554
0.996431
0.996296
0.996147
0.995987
0.995816
0.995635
0.995449
0.995258
0.995069
0.994886
0.994717
0.99457
0.994455
0.994376
0.994334
0.994323
0.99434
0.99438
0.994424
0.994442
0.994388
0.994226
0.993924
0.993462
0.992827
0.992014
0.991026
0.989872
0.98857
0.987143
0.985622
0.984038
0.982431
0.980841
0.979312
0.977887
0.976629
0.975603
0.974859
0.974299
0.97381
0.97329
0.972655
0.971823
0.970706
0.969237
0.967389
0.965166
0.962589
0.959665
0.956385
0.952754
0.948781
0.944527
0.940126
0.935784
0.931803
0.928411
0.925715
0.924438
0.927608
0.939086
0.95078
0.941084
0.915453
0.885037
0.855052
0.823828
0.784532
0.730033
0.991944
0.995452
0.996193
0.996563
0.996757
0.996885
0.996968
0.997017
0.997036
0.997029
0.997001
0.996956
0.996895
0.99682
0.99673
0.996626
0.996509
0.996378
0.996234
0.996077
0.995908
0.995727
0.995538
0.995343
0.995146
0.994951
0.994767
0.994602
0.994464
0.99436
0.99429
0.994252
0.994243
0.994256
0.994277
0.99428
0.994227
0.994081
0.993811
0.993395
0.992815
0.992065
0.991142
0.990055
0.988818
0.987454
0.985988
0.984454
0.982889
0.981332
0.979826
0.978416
0.977165
0.976138
0.975387
0.974858
0.974393
0.973897
0.973294
0.972495
0.971409
0.969968
0.968136
0.965912
0.963319
0.960378
0.957096
0.953492
0.949592
0.945455
0.941217
0.937078
0.933322
0.9302
0.927819
0.926745
0.929597
0.939954
0.951424
0.94361
0.919678
0.890827
0.863419
0.837169
0.805736
0.760091
0.991895
0.995416
0.996175
0.996557
0.996762
0.996898
0.996989
0.997045
0.99707
0.997069
0.997047
0.997007
0.996952
0.996882
0.996799
0.996701
0.99659
0.996464
0.996325
0.996172
0.996005
0.995825
0.995635
0.995436
0.995232
0.995028
0.994829
0.994646
0.994486
0.994357
0.994261
0.994195
0.994155
0.994139
0.994133
0.994117
0.994059
0.993923
0.99368
0.993303
0.992774
0.992083
0.991224
0.990203
0.989032
0.98773
0.986323
0.98484
0.983318
0.981796
0.980315
0.97892
0.977677
0.976648
0.975887
0.975376
0.974948
0.9745
0.973942
0.97319
0.972156
0.970766
0.968975
0.966778
0.964198
0.961263
0.957997
0.954434
0.950616
0.946604
0.94254
0.938614
0.935098
0.932258
0.930215
0.929397
0.932036
0.941289
0.952094
0.945605
0.923012
0.895079
0.868968
0.84584
0.820501
0.783292
0.991846
0.995381
0.996159
0.996552
0.996767
0.996913
0.997012
0.997075
0.997106
0.997111
0.997094
0.99706
0.99701
0.996946
0.996868
0.996776
0.996671
0.996552
0.996418
0.99627
0.996106
0.995929
0.995739
0.995537
0.995327
0.995114
0.994902
0.994702
0.994522
0.994368
0.994245
0.994147
0.994075
0.994026
0.993992
0.993954
0.993886
0.993755
0.993531
0.993188
0.992705
0.992068
0.991271
0.990314
0.989208
0.987969
0.98662
0.98519
0.983713
0.982227
0.980772
0.979393
0.978155
0.977124
0.976351
0.97584
0.975466
0.975073
0.974574
0.973892
0.972929
0.971616
0.969894
0.967754
0.965218
0.962318
0.959092
0.955588
0.951859
0.94798
0.944093
0.940386
0.937117
0.934564
0.932854
0.932329
0.934827
0.943005
0.952798
0.94711
0.925595
0.898214
0.872519
0.850948
0.829788
0.799749
0.991796
0.995345
0.996144
0.996549
0.996775
0.99693
0.997037
0.997107
0.997144
0.997153
0.997142
0.997112
0.997068
0.997009
0.996938
0.996852
0.996754
0.996641
0.996513
0.99637
0.996211
0.996037
0.995848
0.995645
0.995431
0.99521
0.994987
0.994771
0.99457
0.994391
0.994237
0.994107
0.994001
0.993919
0.993854
0.993793
0.99371
0.993578
0.993367
0.993051
0.992608
0.992021
0.991281
0.990386
0.989344
0.988167
0.986877
0.9855
0.984069
0.982619
0.981191
0.979826
0.978594
0.977557
0.976767
0.976245
0.975912
0.975584
0.975172
0.974574
0.973711
0.972498
0.970876
0.968827
0.966367
0.963536
0.960376
0.956947
0.953323
0.949585
0.945878
0.942388
0.939365
0.937089
0.935704
0.935464
0.937865
0.945028
0.953504
0.948102
0.927463
0.900452
0.874634
0.85344
0.834689
0.810132
0.991745
0.995311
0.99613
0.996548
0.996785
0.996949
0.997063
0.997139
0.997182
0.997196
0.997189
0.997165
0.997125
0.997072
0.997007
0.996928
0.996836
0.99673
0.99661
0.996473
0.99632
0.99615
0.995964
0.995761
0.995544
0.995315
0.99508
0.994847
0.994624
0.99442
0.994236
0.994074
0.993934
0.993818
0.993721
0.993633
0.993532
0.993393
0.993189
0.992894
0.992485
0.991942
0.991255
0.990419
0.989437
0.988322
0.98709
0.985766
0.98438
0.982966
0.981564
0.980214
0.978984
0.977938
0.977128
0.976583
0.976258
0.976022
0.975692
0.975209
0.974467
0.973385
0.971893
0.96997
0.967625
0.964894
0.961832
0.958509
0.955007
0.951419
0.947893
0.944617
0.941833
0.939818
0.938718
0.938736
0.94103
0.947218
0.954134
0.948529
0.928581
0.901868
0.875647
0.854041
0.836245
0.815404
0.991693
0.995276
0.996118
0.996548
0.996796
0.996969
0.997091
0.997173
0.99722
0.997239
0.997236
0.997216
0.997182
0.997134
0.997074
0.997002
0.996918
0.99682
0.996707
0.996578
0.996432
0.996266
0.996082
0.995879
0.995658
0.995422
0.995176
0.994927
0.994684
0.994454
0.994241
0.994047
0.993874
0.993724
0.993594
0.993476
0.993353
0.993203
0.993
0.992719
0.992337
0.991833
0.991194
0.990412
0.989488
0.988431
0.987256
0.985983
0.984641
0.983263
0.981886
0.980548
0.979317
0.978258
0.977423
0.976846
0.976505
0.97631
0.976098
0.97574
0.975152
0.974228
0.972905
0.971142
0.968949
0.966363
0.963438
0.960247
0.956888
0.953462
0.950123
0.947056
0.944497
0.942717
0.941857
0.942074
0.944221
0.949366
0.954555
0.948324
0.928886
0.90245
0.875733
0.853243
0.835331
0.816613
0.991641
0.995242
0.996106
0.99655
0.996809
0.996991
0.99712
0.997207
0.997259
0.997282
0.997283
0.997266
0.997236
0.997194
0.99714
0.997075
0.996999
0.996908
0.996803
0.996681
0.99654
0.996379
0.996197
0.995995
0.995772
0.99553
0.995274
0.99501
0.994747
0.994493
0.994252
0.994027
0.99382
0.993635
0.993472
0.993323
0.993175
0.993009
0.992801
0.992528
0.992166
0.991695
0.991097
0.990365
0.989494
0.988493
0.987372
0.986149
0.98485
0.983506
0.982151
0.980824
0.979588
0.978511
0.977644
0.977026
0.976648
0.976452
0.976327
0.976114
0.975693
0.974969
0.973846
0.972288
0.970291
0.967889
0.96514
0.962119
0.958933
0.955684
0.952535
0.949672
0.947326
0.945741
0.945054
0.94538
0.947281
0.951341
0.95465
0.9474
0.928295
0.902133
0.874944
0.851352
0.83261
0.814723
0.991587
0.995208
0.996096
0.996553
0.996823
0.997014
0.99715
0.997242
0.997297
0.997323
0.997327
0.997315
0.997289
0.997251
0.997204
0.997145
0.997076
0.996992
0.996893
0.996777
0.996642
0.996486
0.996309
0.996108
0.995884
0.995637
0.995373
0.995096
0.994815
0.994538
0.99427
0.994014
0.993774
0.993554
0.993356
0.993174
0.992999
0.992812
0.992595
0.992324
0.991976
0.991529
0.990967
0.990278
0.989457
0.988507
0.987436
0.98626
0.985002
0.983689
0.982354
0.981035
0.97979
0.978689
0.977784
0.977114
0.976684
0.976454
0.976351
0.976265
0.976028
0.975514
0.974644
0.973321
0.971562
0.969401
0.966867
0.964051
0.961066
0.958017
0.955065
0.952397
0.950239
0.948793
0.948215
0.948523
0.949997
0.952838
0.954119
0.945654
0.926723
0.900835
0.873255
0.848523
0.828542
0.81054
0.991533
0.995174
0.996087
0.996558
0.996839
0.997038
0.99718
0.997276
0.997334
0.997363
0.99737
0.997361
0.997338
0.997306
0.997263
0.99721
0.997145
0.997067
0.996974
0.996865
0.996737
0.996588
0.996415
0.996217
0.995993
0.995744
0.995472
0.995183
0.994886
0.994587
0.994293
0.994007
0.993734
0.99348
0.993246
0.993031
0.992825
0.992615
0.992383
0.992108
0.991767
0.991339
0.990806
0.990154
0.989376
0.988472
0.987447
0.986315
0.985095
0.98381
0.982493
0.981176
0.979918
0.978786
0.977834
0.977103
0.976606
0.976316
0.976185
0.976141
0.976067
0.975785
0.97517
0.97414
0.97266
0.970774
0.968504
0.965945
0.963197
0.960364
0.957615
0.95513
0.953131
0.951776
0.951184
0.951285
0.952206
0.953566
0.952517
0.942945
0.924081
0.898468
0.870604
0.84481
0.82342
0.804676
0.991477
0.995141
0.99608
0.996564
0.996856
0.997063
0.997211
0.99731
0.997371
0.997402
0.997411
0.997404
0.997385
0.997356
0.997317
0.997267
0.997207
0.997134
0.997048
0.996946
0.996825
0.996683
0.996516
0.996322
0.996099
0.995848
0.995571
0.995272
0.994959
0.994641
0.994321
0.994007
0.993702
0.993413
0.993144
0.992894
0.992656
0.992419
0.992168
0.991882
0.991542
0.991125
0.990614
0.989993
0.989252
0.988389
0.987406
0.986313
0.985126
0.983866
0.982562
0.981245
0.979968
0.978798
0.97779
0.976988
0.976408
0.976036
0.975838
0.97577
0.975753
0.975657
0.975333
0.974591
0.973428
0.971887
0.969912
0.967635
0.965156
0.962564
0.960024
0.957705
0.955814
0.954468
0.953737
0.953499
0.953542
0.953362
0.949828
0.93918
0.920296
0.894946
0.866911
0.8402
0.817399
0.797562
0.991421
0.995108
0.996073
0.996572
0.996875
0.99709
0.997242
0.997344
0.997406
0.997438
0.997449
0.997444
0.997428
0.997401
0.997364
0.997316
0.99726
0.997193
0.997113
0.997019
0.996905
0.99677
0.99661
0.996421
0.996202
0.995951
0.995669
0.995362
0.995036
0.994698
0.994355
0.994013
0.993677
0.993354
0.99305
0.992764
0.992492
0.992226
0.991951
0.99165
0.991304
0.990893
0.990396
0.989799
0.989088
0.988259
0.987312
0.986253
0.985095
0.983856
0.98256
0.981237
0.979935
0.978719
0.977647
0.976762
0.976085
0.975609
0.975314
0.97517
0.975129
0.975097
0.974956
0.974556
0.973712
0.97251
0.970878
0.968948
0.966768
0.964421
0.962082
0.959903
0.958065
0.956666
0.955614
0.954749
0.953723
0.951513
0.945935
0.934275
0.915301
0.890196
0.862097
0.834646
0.810543
0.789479
0.991363
0.995075
0.996067
0.99658
0.996894
0.997116
0.997273
0.997376
0.99744
0.997473
0.997484
0.99748
0.997466
0.99744
0.997403
0.997358
0.997305
0.997243
0.99717
0.997082
0.996977
0.99685
0.996697
0.996515
0.9963
0.99605
0.995766
0.995452
0.995114
0.99476
0.994395
0.994025
0.993659
0.993303
0.992964
0.992642
0.992335
0.992036
0.991734
0.991414
0.991057
0.990643
0.990154
0.989573
0.988886
0.988084
0.987167
0.986136
0.985001
0.983777
0.982485
0.981151
0.979819
0.978549
0.977402
0.97642
0.975632
0.975033
0.974612
0.974351
0.974221
0.974157
0.974067
0.973833
0.973306
0.972497
0.97119
0.96959
0.967717
0.965635
0.963493
0.961417
0.959542
0.957932
0.956399
0.954753
0.952233
0.948065
0.94077
0.928167
0.909052
0.884171
0.85609
0.828088
0.802869
0.78059
0.991304
0.995042
0.996063
0.99659
0.996915
0.997143
0.997303
0.997408
0.997471
0.997504
0.997516
0.997513
0.997499
0.997471
0.997435
0.997392
0.997342
0.997285
0.997217
0.997137
0.997039
0.996921
0.996777
0.996602
0.996392
0.996146
0.995861
0.995542
0.995194
0.994824
0.994439
0.994044
0.993649
0.993261
0.992886
0.992528
0.992185
0.991852
0.99152
0.991175
0.990801
0.99038
0.989891
0.989319
0.988648
0.987867
0.986972
0.985963
0.984846
0.983631
0.982337
0.980986
0.979617
0.978286
0.977052
0.975962
0.975045
0.974304
0.973732
0.973318
0.973047
0.972874
0.97273
0.972521
0.972125
0.971528
0.970571
0.969356
0.967769
0.965911
0.963918
0.961881
0.959881
0.957943
0.955791
0.952904
0.948876
0.943063
0.934297
0.920817
0.901516
0.876827
0.848838
0.820465
0.794343
0.770988
0.991244
0.995009
0.99606
0.9966
0.996936
0.99717
0.997333
0.997438
0.997501
0.997533
0.997545
0.997542
0.997526
0.997496
0.99746
0.997418
0.997372
0.997319
0.997256
0.997183
0.997093
0.996983
0.996848
0.996682
0.996479
0.996237
0.995954
0.995632
0.995276
0.994892
0.994488
0.99407
0.993646
0.993226
0.992817
0.992423
0.992043
0.991675
0.99131
0.990937
0.990541
0.990106
0.989611
0.989041
0.988378
0.987611
0.986731
0.985737
0.98463
0.983419
0.982117
0.980742
0.979328
0.977928
0.976597
0.975385
0.974324
0.973421
0.972672
0.972072
0.971615
0.971271
0.970987
0.970689
0.970278
0.969722
0.968903
0.967857
0.966496
0.964849
0.962974
0.9609
0.958636
0.956128
0.953106
0.949121
0.943785
0.936559
0.926508
0.912208
0.892684
0.868157
0.840319
0.811737
0.784954
0.76066
0.991183
0.994977
0.996057
0.996612
0.996958
0.997198
0.997362
0.997466
0.997528
0.997559
0.99757
0.997567
0.997547
0.997516
0.997478
0.997438
0.997394
0.997344
0.997287
0.99722
0.997137
0.997036
0.996911
0.996754
0.996559
0.996323
0.996043
0.99572
0.995358
0.994963
0.994542
0.994101
0.993651
0.993201
0.992758
0.992328
0.991911
0.991505
0.991105
0.990701
0.99028
0.989824
0.989317
0.988741
0.98808
0.987319
0.986447
0.98546
0.984357
0.983142
0.981825
0.980419
0.978955
0.977476
0.976039
0.974691
0.973468
0.972383
0.971433
0.970616
0.969932
0.969363
0.968868
0.968387
0.967839
0.967184
0.96633
0.965272
0.963936
0.962302
0.96037
0.95812
0.955501
0.952407
0.948566
0.943577
0.93708
0.928603
0.917402
0.902328
0.882552
0.858154
0.830506
0.801855
0.774602
0.99112
0.994944
0.996055
0.996624
0.99698
0.997224
0.997389
0.997493
0.997553
0.997583
0.997592
0.997587
0.997563
0.997529
0.997491
0.997451
0.997409
0.997362
0.99731
0.997248
0.997173
0.997081
0.996965
0.996818
0.996633
0.996404
0.996128
0.995806
0.99544
0.995035
0.994599
0.994139
0.993664
0.993184
0.992709
0.992243
0.991789
0.991345
0.990909
0.99047
0.990018
0.989538
0.989013
0.988425
0.987757
0.986995
0.986124
0.985137
0.984029
0.982804
0.981464
0.98002
0.978496
0.976932
0.975378
0.973882
0.97248
0.971189
0.970013
0.96895
0.968002
0.967159
0.96639
0.965646
0.96486
0.963989
0.962955
0.961735
0.960255
0.958466
0.956325
0.953772
0.950711
0.946994
0.94235
0.936415
0.928838
0.991055
0.994911
0.996055
0.996637
0.997003
0.997251
0.997416
0.997517
0.997575
0.997603
0.997611
0.997602
0.997574
0.997538
0.997498
0.997458
0.997417
0.997373
0.997325
0.997268
0.9972
0.997116
0.99701
0.996874
0.996699
0.996478
0.996209
0.995889
0.995521
0.99511
0.994661
0.994182
0.993684
0.993176
0.992669
0.992169
0.991677
0.991196
0.990721
0.990246
0.989761
0.989251
0.988702
0.988096
0.987415
0.986643
0.985765
0.98477
0.983652
0.982407
0.981037
0.979548
0.977957
0.976298
0.974617
0.97296
0.971363
0.969846
0.968417
0.967076
0.965827
0.964665
0.963566
0.96249
0.961378
0.960187
0.958853
0.957338
0.955571
0.95348
0.950997
0.948025
0.944436
0.940052
0.934603
0.927751
0.919155
0.990988
0.994877
0.996054
0.996651
0.997026
0.997277
0.997441
0.99754
0.997595
0.99762
0.997626
0.997614
0.997581
0.997542
0.997501
0.99746
0.99742
0.997378
0.997332
0.997281
0.997219
0.997143
0.997046
0.996921
0.996757
0.996547
0.996285
0.995969
0.995602
0.995185
0.994726
0.994231
0.993711
0.993178
0.99264
0.992106
0.991578
0.991058
0.990544
0.99003
0.989509
0.988966
0.988388
0.987757
0.987057
0.986269
0.985376
0.984366
0.983228
0.981957