/*--------------------------------*- C++ -*----------------------------------*\
  =========                 |
  \\      /  F ield         | OpenFOAM: The Open Source CFD Toolbox
   \\    /   O peration     | Website:  https://openfoam.org
    \\  /    A nd           | Version:  9
     \\/     M anipulation  |
\*---------------------------------------------------------------------------*/
FoamFile
{
    format      ascii;
    class       volScalarField;
    location    "1500";
    object      k;
}
// * * * * * * * * * * * * * * * * * * * * * * * * * * * * * * * * * * * * * //

dimensions      [0 2 -2 0 0 0 0];

internalField   nonuniform List<scalar> 
13617
(
9.55328e-06
1.62538e-05
1.69477e-05
1.76681e-05
1.84135e-05
1.9181e-05
1.99704e-05
2.07818e-05
2.16138e-05
2.24646e-05
2.33346e-05
2.42233e-05
2.5129e-05
2.60515e-05
2.69893e-05
2.79411e-05
2.89073e-05
2.98853e-05
3.08737e-05
3.18714e-05
3.28766e-05
3.38883e-05
3.4905e-05
3.59245e-05
3.69463e-05
3.79673e-05
3.89874e-05
4.00052e-05
4.10184e-05
4.20261e-05
4.30275e-05
4.40208e-05
4.5004e-05
4.59774e-05
4.69406e-05
4.78917e-05
4.88306e-05
4.97561e-05
5.06689e-05
5.15676e-05
5.24519e-05
5.33235e-05
5.41815e-05
5.50259e-05
5.58581e-05
5.6677e-05
5.74832e-05
5.82773e-05
5.9058e-05
5.98257e-05
6.05786e-05
6.13185e-05
6.20456e-05
6.27572e-05
6.34562e-05
6.41461e-05
6.48247e-05
6.54925e-05
6.61528e-05
6.68076e-05
6.74611e-05
6.81135e-05
6.87652e-05
6.9422e-05
7.0088e-05
7.07654e-05
7.14558e-05
7.216e-05
7.2881e-05
7.3619e-05
7.43739e-05
7.51543e-05
7.59758e-05
7.68474e-05
7.77749e-05
7.88825e-05
8.02451e-05
8.20636e-05
8.52917e-05
8.96995e-05
9.21335e-05
9.46552e-05
0.000105619
0.000124038
0.00013527
0.000137795
1.01026e-05
1.70612e-05
1.77723e-05
1.85052e-05
1.92617e-05
2.00392e-05
2.0837e-05
2.16536e-05
2.24883e-05
2.33413e-05
2.42109e-05
2.50962e-05
2.59964e-05
2.69103e-05
2.78367e-05
2.87737e-05
2.97215e-05
3.06784e-05
3.16426e-05
3.26126e-05
3.35873e-05
3.45652e-05
3.55445e-05
3.65238e-05
3.75016e-05
3.8477e-05
3.9448e-05
4.04139e-05
4.13732e-05
4.2324e-05
4.32658e-05
4.41981e-05
4.51192e-05
4.60281e-05
4.6925e-05
4.78094e-05
4.86809e-05
4.95392e-05
5.03828e-05
5.12127e-05
5.20292e-05
5.28324e-05
5.36221e-05
5.43993e-05
5.51664e-05
5.59206e-05
5.66633e-05
5.73955e-05
5.81167e-05
5.88269e-05
5.95256e-05
6.02126e-05
6.0888e-05
6.15535e-05
6.22098e-05
6.28573e-05
6.34965e-05
6.41297e-05
6.47587e-05
6.5386e-05
6.60134e-05
6.66433e-05
6.72785e-05
6.79227e-05
6.85782e-05
6.9247e-05
6.99325e-05
7.06376e-05
7.13632e-05
7.21086e-05
7.28752e-05
7.36684e-05
7.45065e-05
7.54027e-05
7.63399e-05
7.74536e-05
7.87714e-05
8.0586e-05
8.4681e-05
8.88015e-05
9.07077e-05
9.41736e-05
0.000109396
0.000130581
0.000139162
0.000138284
1.14625e-05
1.80558e-05
1.87815e-05
1.9524e-05
2.02883e-05
2.10719e-05
2.18728e-05
2.26912e-05
2.35256e-05
2.43736e-05
2.52364e-05
2.61117e-05
2.69978e-05
2.78953e-05
2.88025e-05
2.97174e-05
3.0639e-05
3.1566e-05
3.24973e-05
3.34316e-05
3.43667e-05
3.53023e-05
3.6236e-05
3.71661e-05
3.80928e-05
3.90142e-05
3.99284e-05
4.08349e-05
4.17325e-05
4.26198e-05
4.34963e-05
4.43611e-05
4.52138e-05
4.60535e-05
4.68806e-05
4.76942e-05
4.84943e-05
4.92809e-05
5.00536e-05
5.08126e-05
5.15585e-05
5.22911e-05
5.30127e-05
5.37228e-05
5.44229e-05
5.51134e-05
5.57932e-05
5.6463e-05
5.71252e-05
5.77781e-05
5.84214e-05
5.90562e-05
5.96821e-05
6.03007e-05
6.09129e-05
6.15191e-05
6.21208e-05
6.27192e-05
6.33165e-05
6.39157e-05
6.45172e-05
6.51254e-05
6.57421e-05
6.63693e-05
6.70121e-05
6.7672e-05
6.83513e-05
6.90526e-05
6.97773e-05
7.05257e-05
7.12973e-05
7.20975e-05
7.29448e-05
7.38577e-05
7.47967e-05
7.58943e-05
7.71651e-05
7.89973e-05
8.38578e-05
8.71291e-05
8.90413e-05
9.38735e-05
0.000111444
0.000132281
0.000139636
0.00013805
1.31565e-05
1.91862e-05
1.99244e-05
2.06729e-05
2.14412e-05
2.22259e-05
2.30259e-05
2.38401e-05
2.46664e-05
2.55056e-05
2.6355e-05
2.72136e-05
2.80811e-05
2.89554e-05
2.98356e-05
3.07198e-05
3.16089e-05
3.25004e-05
3.33922e-05
3.4283e-05
3.51723e-05
3.60582e-05
3.69394e-05
3.78152e-05
3.86838e-05
3.9545e-05
4.03968e-05
4.12388e-05
4.20699e-05
4.28901e-05
4.36978e-05
4.44919e-05
4.5274e-05
4.6043e-05
4.67972e-05
4.75386e-05
4.82669e-05
4.89811e-05
4.96824e-05
5.03703e-05
5.10455e-05
5.17102e-05
5.23643e-05
5.30086e-05
5.36437e-05
5.42698e-05
5.48893e-05
5.55018e-05
5.61069e-05
5.67047e-05
5.7296e-05
5.78814e-05
5.84605e-05
5.90328e-05
5.96018e-05
6.01689e-05
6.07333e-05
6.12982e-05
6.18654e-05
6.24363e-05
6.30138e-05
6.36001e-05
6.41963e-05
6.4808e-05
6.54378e-05
6.60865e-05
6.67574e-05
6.7452e-05
6.8173e-05
6.89193e-05
6.96894e-05
7.04917e-05
7.13413e-05
7.226e-05
7.31929e-05
7.42677e-05
7.54959e-05
7.74202e-05
8.32576e-05
8.51595e-05
8.71124e-05
9.34826e-05
0.000111531
0.000130481
0.000138136
0.000137966
1.51081e-05
2.04626e-05
2.1204e-05
2.19535e-05
2.27198e-05
2.35006e-05
2.42929e-05
2.50966e-05
2.59098e-05
2.67307e-05
2.75594e-05
2.83947e-05
2.92342e-05
3.00772e-05
3.0924e-05
3.17719e-05
3.26194e-05
3.34655e-05
3.43097e-05
3.51508e-05
3.59867e-05
3.68165e-05
3.76391e-05
3.84533e-05
3.92586e-05
4.00538e-05
4.08385e-05
4.16121e-05
4.23735e-05
4.31219e-05
4.38567e-05
4.45785e-05
4.52875e-05
4.59826e-05
4.66642e-05
4.73327e-05
4.79881e-05
4.86302e-05
4.92603e-05
4.98786e-05
5.04852e-05
5.10825e-05
5.16708e-05
5.22513e-05
5.28245e-05
5.33902e-05
5.39512e-05
5.45066e-05
5.50577e-05
5.56042e-05
5.61456e-05
5.66827e-05
5.72166e-05
5.7748e-05
5.82781e-05
5.88069e-05
5.93364e-05
5.98698e-05
6.04075e-05
6.09506e-05
6.15039e-05
6.20681e-05
6.26447e-05
6.32388e-05
6.38531e-05
6.44882e-05
6.5148e-05
6.58324e-05
6.65439e-05
6.72839e-05
6.80497e-05
6.88479e-05
6.96911e-05
7.06064e-05
7.15314e-05
7.25815e-05
7.37631e-05
7.59928e-05
8.22503e-05
8.30692e-05
8.52824e-05
9.30051e-05
0.000110692
0.000127013
0.00013519
0.000136712
1.7299e-05
2.18891e-05
2.26295e-05
2.33736e-05
2.41316e-05
2.48998e-05
2.56769e-05
2.64618e-05
2.72532e-05
2.8049e-05
2.88485e-05
2.96508e-05
3.0454e-05
3.1258e-05
3.20611e-05
3.28614e-05
3.36595e-05
3.44538e-05
3.52427e-05
3.60247e-05
3.67991e-05
3.7565e-05
3.83219e-05
3.90691e-05
3.98053e-05
4.05297e-05
4.1242e-05
4.19424e-05
4.26294e-05
4.33032e-05
4.39628e-05
4.46094e-05
4.52436e-05
4.5864e-05
4.64715e-05
4.70662e-05
4.76482e-05
4.82195e-05
4.87798e-05
4.93289e-05
4.98681e-05
5.03998e-05
5.09241e-05
5.14418e-05
5.1955e-05
5.24635e-05
5.29681e-05
5.34698e-05
5.39692e-05
5.44662e-05
5.4962e-05
5.54546e-05
5.59462e-05
5.64385e-05
5.69305e-05
5.74236e-05
5.79208e-05
5.84233e-05
5.89324e-05
5.94501e-05
5.99793e-05
6.05204e-05
6.10775e-05
6.16536e-05
6.2251e-05
6.28709e-05
6.35165e-05
6.41878e-05
6.48878e-05
6.56164e-05
6.63726e-05
6.71621e-05
6.7996e-05
6.89014e-05
6.98175e-05
7.08402e-05
7.19904e-05
7.46245e-05
8.01401e-05
8.08668e-05
8.37753e-05
9.25999e-05
0.000109407
0.000123164
0.000131585
0.000134285
1.9726e-05
2.3473e-05
2.42054e-05
2.49363e-05
2.56775e-05
2.64254e-05
2.71791e-05
2.79366e-05
2.86953e-05
2.94552e-05
3.02162e-05
3.09757e-05
3.17324e-05
3.2486e-05
3.32371e-05
3.39814e-05
3.47196e-05
3.54519e-05
3.61761e-05
3.68911e-05
3.75968e-05
3.82919e-05
3.89761e-05
3.96492e-05
4.031e-05
4.09583e-05
4.15938e-05
4.22162e-05
4.28251e-05
4.34206e-05
4.40032e-05
4.45733e-05
4.51305e-05
4.56752e-05
4.62078e-05
4.6729e-05
4.72395e-05
4.77397e-05
4.82304e-05
4.87117e-05
4.91855e-05
4.96535e-05
5.01164e-05
5.0575e-05
5.103e-05
5.14831e-05
5.19354e-05
5.23865e-05
5.28366e-05
5.32871e-05
5.37383e-05
5.41894e-05
5.46425e-05
5.50963e-05
5.55526e-05
5.60134e-05
5.648e-05
5.69528e-05
5.74344e-05
5.79273e-05
5.84329e-05
5.8952e-05
5.94897e-05
6.00468e-05
6.06264e-05
6.1229e-05
6.18584e-05
6.25155e-05
6.32015e-05
6.39172e-05
6.4661e-05
6.54396e-05
6.62625e-05
6.71532e-05
6.80595e-05
6.90587e-05
7.02055e-05
7.32162e-05
7.74233e-05
7.87298e-05
8.25097e-05
9.19759e-05
0.000107184
0.000118936
0.000127518
0.000130776
2.24592e-05
2.52427e-05
2.59582e-05
2.66656e-05
2.73791e-05
2.80957e-05
2.88128e-05
2.95295e-05
3.02441e-05
3.09565e-05
3.16654e-05
3.23691e-05
3.30682e-05
3.37615e-05
3.44463e-05
3.51229e-05
3.57922e-05
3.64522e-05
3.71015e-05
3.77406e-05
3.83688e-05
3.89843e-05
3.95888e-05
4.01812e-05
4.07604e-05
4.13267e-05
4.18803e-05
4.24218e-05
4.29501e-05
4.3465e-05
4.39681e-05
4.44593e-05
4.49392e-05
4.54076e-05
4.58655e-05
4.63138e-05
4.67529e-05
4.71837e-05
4.76064e-05
4.80224e-05
4.84334e-05
4.88401e-05
4.92428e-05
4.9644e-05
5.00445e-05
5.04449e-05
5.08465e-05
5.12502e-05
5.16551e-05
5.20623e-05
5.24717e-05
5.28833e-05
5.32992e-05
5.37183e-05
5.41413e-05
5.45714e-05
5.50091e-05
5.54547e-05
5.59109e-05
5.63795e-05
5.68622e-05
5.73602e-05
5.78776e-05
5.84162e-05
5.8978e-05
5.95634e-05
6.01774e-05
6.08184e-05
6.14893e-05
6.21905e-05
6.29208e-05
6.36868e-05
6.44956e-05
6.53708e-05
6.62646e-05
6.72357e-05
6.84162e-05
7.17762e-05
7.48384e-05
7.67384e-05
8.1276e-05
9.04765e-05
0.000104461
0.000114316
0.000123023
0.000126304
2.56883e-05
2.73091e-05
2.79848e-05
2.8647e-05
2.93111e-05
2.99743e-05
3.06346e-05
3.12914e-05
3.19432e-05
3.25882e-05
3.32271e-05
3.38582e-05
3.448e-05
3.50935e-05
3.56995e-05
3.62946e-05
3.68794e-05
3.74543e-05
3.80177e-05
3.85689e-05
3.91093e-05
3.96373e-05
4.01529e-05
4.06573e-05
4.1149e-05
4.16281e-05
4.20952e-05
4.25512e-05
4.29945e-05
4.34263e-05
4.38485e-05
4.42602e-05
4.46611e-05
4.50535e-05
4.54373e-05
4.58131e-05
4.61823e-05
4.65452e-05
4.69023e-05
4.72548e-05
4.76046e-05
4.79524e-05
4.82992e-05
4.86466e-05
4.89951e-05
4.9346e-05
4.97003e-05
5.0059e-05
5.04211e-05
5.07876e-05
5.11588e-05
5.1534e-05
5.19146e-05
5.23016e-05
5.26945e-05
5.30957e-05
5.35061e-05
5.39264e-05
5.43588e-05
5.4805e-05
5.52669e-05
5.57454e-05
5.62435e-05
5.67629e-05
5.73067e-05
5.7876e-05
5.8473e-05
5.90986e-05
5.97544e-05
6.04408e-05
6.1158e-05
6.19098e-05
6.27058e-05
6.35691e-05
6.44444e-05
6.53848e-05
6.66297e-05
7.04311e-05
7.25539e-05
7.47945e-05
7.98426e-05
8.8145e-05
0.000101939
0.000109709
0.000118113
0.000121129
2.97614e-05
2.98195e-05
3.04136e-05
3.09945e-05
3.15749e-05
3.21516e-05
3.2723e-05
3.32885e-05
3.3846e-05
3.43954e-05
3.49377e-05
3.54703e-05
3.59929e-05
3.65068e-05
3.70113e-05
3.75052e-05
3.79894e-05
3.84625e-05
3.89246e-05
3.93763e-05
3.98163e-05
4.0245e-05
4.06631e-05
4.10705e-05
4.14671e-05
4.18529e-05
4.22286e-05
4.25948e-05
4.29513e-05
4.32984e-05
4.36374e-05
4.39681e-05
4.42907e-05
4.46067e-05
4.49162e-05
4.5221e-05
4.55217e-05
4.58183e-05
4.61126e-05
4.64045e-05
4.66955e-05
4.69874e-05
4.72808e-05
4.75778e-05
4.78784e-05
4.81833e-05
4.84942e-05
4.88104e-05
4.91328e-05
4.94624e-05
4.97982e-05
5.01401e-05
5.04899e-05
5.08476e-05
5.12128e-05
5.15872e-05
5.19724e-05
5.237e-05
5.27813e-05
5.32072e-05
5.36492e-05
5.411e-05
5.45904e-05
5.50928e-05
5.56214e-05
5.61749e-05
5.67565e-05
5.73689e-05
5.8011e-05
5.86845e-05
5.93897e-05
6.01302e-05
6.09157e-05
6.17673e-05
6.26221e-05
6.35419e-05
6.49089e-05
6.92735e-05
7.05233e-05
7.28661e-05
7.83128e-05
8.57291e-05
9.9528e-05
0.000105891
0.000112484
0.000115556
3.47612e-05
3.28148e-05
3.32759e-05
3.37304e-05
3.4182e-05
3.46296e-05
3.50714e-05
3.55093e-05
3.59408e-05
3.63629e-05
3.67778e-05
3.71847e-05
3.75825e-05
3.79728e-05
3.83549e-05
3.87277e-05
3.90924e-05
3.94485e-05
3.97958e-05
4.01337e-05
4.04631e-05
4.07844e-05
4.10971e-05
4.14011e-05
4.16969e-05
4.19852e-05
4.2266e-05
4.25397e-05
4.28074e-05
4.30683e-05
4.33234e-05
4.35738e-05
4.38195e-05
4.40608e-05
4.42988e-05
4.45349e-05
4.477e-05
4.50044e-05
4.52386e-05
4.54736e-05
4.57097e-05
4.59488e-05
4.61929e-05
4.64431e-05
4.66996e-05
4.69626e-05
4.72338e-05
4.75132e-05
4.78002e-05
4.80963e-05
4.84011e-05
4.8714e-05
4.90363e-05
4.93678e-05
4.97095e-05
5.00616e-05
5.04254e-05
5.08034e-05
5.11961e-05
5.16051e-05
5.20315e-05
5.24769e-05
5.29434e-05
5.34327e-05
5.39487e-05
5.4491e-05
5.5062e-05
5.56635e-05
5.62955e-05
5.69596e-05
5.76552e-05
5.83881e-05
5.91663e-05
6.00081e-05
6.08455e-05
6.175e-05
6.33519e-05
6.79184e-05
6.85923e-05
7.10494e-05
7.69274e-05
8.37566e-05
9.71112e-05
0.000101939
0.000107128
0.000109144
4.02077e-05
3.60407e-05
3.63245e-05
3.66129e-05
3.69031e-05
3.71911e-05
3.74773e-05
3.77599e-05
3.80368e-05
3.83104e-05
3.85801e-05
3.88429e-05
3.91003e-05
3.93536e-05
3.96018e-05
3.98442e-05
4.00813e-05
4.0313e-05
4.0539e-05
4.076e-05
4.09757e-05
4.11862e-05
4.13919e-05
4.15927e-05
4.17892e-05
4.19816e-05
4.21696e-05
4.23542e-05
4.25355e-05
4.27137e-05
4.28903e-05
4.30646e-05
4.32373e-05
4.34096e-05
4.35822e-05
4.37554e-05
4.39305e-05
4.41075e-05
4.42869e-05
4.44704e-05
4.46584e-05
4.4852e-05
4.50531e-05
4.5263e-05
4.54806e-05
4.57072e-05
4.59443e-05
4.6192e-05
4.645e-05
4.67181e-05
4.69971e-05
4.7287e-05
4.75869e-05
4.78975e-05
4.82205e-05
4.85555e-05
4.89034e-05
4.92671e-05
4.96467e-05
5.00439e-05
5.04598e-05
5.08948e-05
5.13523e-05
5.18339e-05
5.23416e-05
5.28773e-05
5.34427e-05
5.40385e-05
5.46653e-05
5.53241e-05
5.60148e-05
5.67428e-05
5.75159e-05
5.83464e-05
5.91674e-05
6.00627e-05
6.19613e-05
6.60575e-05
6.66467e-05
6.94695e-05
7.55573e-05
8.19321e-05
9.39713e-05
9.75837e-05
0.000101954
0.000102655
4.50633e-05
3.89582e-05
3.90509e-05
3.91687e-05
3.92909e-05
3.94164e-05
3.95434e-05
3.96706e-05
3.97976e-05
3.99239e-05
4.00502e-05
4.01747e-05
4.02974e-05
4.04193e-05
4.0541e-05
4.06605e-05
4.07781e-05
4.08944e-05
4.10095e-05
4.11232e-05
4.12356e-05
4.13463e-05
4.14557e-05
4.15644e-05
4.16721e-05
4.17791e-05
4.18855e-05
4.19924e-05
4.20992e-05
4.22064e-05
4.23144e-05
4.24237e-05
4.25347e-05
4.26487e-05
4.27656e-05
4.2886e-05
4.30112e-05
4.3141e-05
4.32761e-05
4.34174e-05
4.35662e-05
4.37233e-05
4.389e-05
4.40671e-05
4.42546e-05
4.44539e-05
4.46652e-05
4.4889e-05
4.51254e-05
4.53733e-05
4.56337e-05
4.59064e-05
4.61914e-05
4.64892e-05
4.68001e-05
4.71244e-05
4.7463e-05
4.78184e-05
4.81908e-05
4.85823e-05
4.8993e-05
4.94245e-05
4.9879e-05
5.0358e-05
5.08636e-05
5.13967e-05
5.19591e-05
5.2552e-05
5.31756e-05
5.38318e-05
5.45199e-05
5.52435e-05
5.60129e-05
5.68296e-05
5.76308e-05
5.85168e-05
6.07144e-05
6.41011e-05
6.47983e-05
6.81133e-05
7.37566e-05
7.98606e-05
9.00269e-05
9.29584e-05
9.68703e-05
9.68962e-05
4.83358e-05
4.09837e-05
4.09123e-05
4.08885e-05
4.08745e-05
4.0867e-05
4.08638e-05
4.08657e-05
4.0871e-05
4.08792e-05
4.08912e-05
4.09055e-05
4.09208e-05
4.09392e-05
4.09604e-05
4.09835e-05
4.10093e-05
4.10363e-05
4.10649e-05
4.10959e-05
4.11286e-05
4.1163e-05
4.11989e-05
4.12376e-05
4.12785e-05
4.13214e-05
4.13664e-05
4.14143e-05
4.14659e-05
4.15202e-05
4.15779e-05
4.164e-05
4.17062e-05
4.17773e-05
4.18537e-05
4.19362e-05
4.20252e-05
4.21219e-05
4.22262e-05
4.2338e-05
4.24595e-05
4.25916e-05
4.27348e-05
4.28907e-05
4.30592e-05
4.32406e-05
4.34356e-05
4.36446e-05
4.38675e-05
4.41041e-05
4.43552e-05
4.46198e-05
4.48975e-05
4.51889e-05
4.54941e-05
4.58144e-05
4.61502e-05
4.65037e-05
4.68753e-05
4.72657e-05
4.76758e-05
4.81082e-05
4.85632e-05
4.90422e-05
4.95473e-05
5.00798e-05
5.06415e-05
5.12329e-05
5.18533e-05
5.25049e-05
5.31873e-05
5.39046e-05
5.46656e-05
5.5459e-05
5.6234e-05
5.71131e-05
5.95923e-05
6.23156e-05
6.30486e-05
6.67778e-05
7.16029e-05
7.75503e-05
8.59186e-05
8.84631e-05
9.19186e-05
9.14886e-05
4.95922e-05
4.18101e-05
4.16261e-05
4.15115e-05
4.1409e-05
4.13162e-05
4.12314e-05
4.11538e-05
4.10825e-05
4.10168e-05
4.09573e-05
4.09026e-05
4.08511e-05
4.08047e-05
4.07642e-05
4.07279e-05
4.06952e-05
4.06667e-05
4.06427e-05
4.06232e-05
4.0607e-05
4.05942e-05
4.0586e-05
4.05823e-05
4.05828e-05
4.05869e-05
4.05956e-05
4.06091e-05
4.06274e-05
4.06502e-05
4.06784e-05
4.07127e-05
4.07527e-05
4.07997e-05
4.08534e-05
4.09148e-05
4.09846e-05
4.10628e-05
4.11502e-05
4.12475e-05
4.13555e-05
4.14746e-05
4.16068e-05
4.1753e-05
4.19122e-05
4.2086e-05
4.22749e-05
4.24788e-05
4.26977e-05
4.29314e-05
4.318e-05
4.34426e-05
4.37202e-05
4.4012e-05
4.43177e-05
4.46387e-05
4.49763e-05
4.53314e-05
4.57045e-05
4.60974e-05
4.65099e-05
4.69436e-05
4.73989e-05
4.78777e-05
4.83821e-05
4.8912e-05
4.94692e-05
5.00554e-05
5.06688e-05
5.13105e-05
5.19813e-05
5.26857e-05
5.3433e-05
5.41938e-05
5.4934e-05
5.581e-05
5.85522e-05
6.06813e-05
6.13262e-05
6.54628e-05
6.94278e-05
7.51467e-05
8.19201e-05
8.41464e-05
8.69704e-05
8.61234e-05
4.9107e-05
4.15161e-05
4.12748e-05
4.11191e-05
4.09768e-05
4.08464e-05
4.07256e-05
4.0612e-05
4.05065e-05
4.04079e-05
4.03164e-05
4.02317e-05
4.01516e-05
4.00777e-05
4.00097e-05
3.99475e-05
3.98908e-05
3.98386e-05
3.97924e-05
3.97513e-05
3.97147e-05
3.96832e-05
3.96567e-05
3.96352e-05
3.96191e-05
3.96084e-05
3.96027e-05
3.96026e-05
3.96079e-05
3.9619e-05
3.96367e-05
3.96608e-05
3.96916e-05
3.97305e-05
3.97773e-05
3.98319e-05
3.9896e-05
3.99696e-05
4.00527e-05
4.01466e-05
4.02523e-05
4.037e-05
4.05009e-05
4.06462e-05
4.08058e-05
4.09809e-05
4.11713e-05
4.13769e-05
4.15984e-05
4.18351e-05
4.20869e-05
4.23532e-05
4.26342e-05
4.29296e-05
4.32388e-05
4.35631e-05
4.39043e-05
4.42625e-05
4.46377e-05
4.50321e-05
4.54457e-05
4.58789e-05
4.63329e-05
4.68088e-05
4.73081e-05
4.78315e-05
4.83801e-05
4.89549e-05
4.9555e-05
5.01816e-05
5.08358e-05
5.15203e-05
5.22456e-05
5.29687e-05
5.36665e-05
5.45511e-05
5.75358e-05
5.9088e-05
5.96271e-05
6.40427e-05
6.72843e-05
7.26187e-05
7.79945e-05
7.98852e-05
8.197e-05
8.07981e-05
4.75221e-05
4.0456e-05
4.0194e-05
4.0031e-05
3.98828e-05
3.97466e-05
3.96194e-05
3.95005e-05
3.93904e-05
3.92882e-05
3.91925e-05
3.91033e-05
3.902e-05
3.89431e-05
3.88725e-05
3.88071e-05
3.87478e-05
3.8694e-05
3.86456e-05
3.86027e-05
3.85647e-05
3.85321e-05
3.85047e-05
3.84831e-05
3.84669e-05
3.84559e-05
3.84505e-05
3.84509e-05
3.84574e-05
3.847e-05
3.84893e-05
3.85152e-05
3.85481e-05
3.85894e-05
3.86393e-05
3.86974e-05
3.87646e-05
3.88423e-05
3.89298e-05
3.90278e-05
3.91377e-05
3.92608e-05
3.93972e-05
3.95474e-05
3.97129e-05
3.98937e-05
4.00896e-05
4.03013e-05
4.05287e-05
4.07716e-05
4.10293e-05
4.13009e-05
4.15873e-05
4.18876e-05
4.22012e-05
4.25293e-05
4.28729e-05
4.32326e-05
4.3609e-05
4.40026e-05
4.44138e-05
4.48436e-05
4.52928e-05
4.57626e-05
4.62529e-05
4.67652e-05
4.73014e-05
4.78607e-05
4.84437e-05
4.90516e-05
4.96844e-05
5.03455e-05
5.10431e-05
5.17268e-05
5.23766e-05
5.32841e-05
5.64833e-05
5.75072e-05
5.79714e-05
6.24405e-05
6.51184e-05
7.00105e-05
7.42274e-05
7.58038e-05
7.71384e-05
7.58248e-05
4.55336e-05
3.90324e-05
3.87694e-05
3.86144e-05
3.84757e-05
3.83483e-05
3.82293e-05
3.81197e-05
3.8018e-05
3.79234e-05
3.78362e-05
3.77547e-05
3.76788e-05
3.76102e-05
3.75474e-05
3.74894e-05
3.74375e-05
3.73913e-05
3.73502e-05
3.73143e-05
3.72836e-05
3.72581e-05
3.72374e-05
3.72223e-05
3.72131e-05
3.72087e-05
3.72104e-05
3.7218e-05
3.72309e-05
3.72501e-05
3.72762e-05
3.73094e-05
3.73495e-05
3.73975e-05
3.74541e-05
3.75199e-05
3.75946e-05
3.76791e-05
3.77742e-05
3.78798e-05
3.79977e-05
3.81286e-05
3.82725e-05
3.84306e-05
3.86035e-05
3.87913e-05
3.89943e-05
3.92133e-05
3.94475e-05
3.96967e-05
3.99605e-05
4.02373e-05
4.05284e-05
4.08326e-05
4.11496e-05
4.148e-05
4.18243e-05
4.21841e-05
4.25594e-05
4.29505e-05
4.33577e-05
4.3782e-05
4.4224e-05
4.46845e-05
4.51639e-05
4.5663e-05
4.61832e-05
4.67259e-05
4.72908e-05
4.78784e-05
4.84896e-05
4.91268e-05
4.97935e-05
5.04414e-05
5.10414e-05
5.1993e-05
5.54141e-05
5.59004e-05
5.63461e-05
6.06217e-05
6.2821e-05
6.73296e-05
7.05834e-05
7.18082e-05
7.24677e-05
7.11389e-05
4.35492e-05
3.7536e-05
3.72769e-05
3.71334e-05
3.70061e-05
3.68901e-05
3.67825e-05
3.66831e-05
3.65917e-05
3.6507e-05
3.64295e-05
3.6358e-05
3.62916e-05
3.62316e-05
3.61772e-05
3.61284e-05
3.60852e-05
3.60472e-05
3.60143e-05
3.59863e-05
3.59635e-05
3.59457e-05
3.59328e-05
3.59251e-05
3.59232e-05
3.59267e-05
3.59354e-05
3.595e-05
3.59705e-05
3.59968e-05
3.60302e-05
3.60708e-05
3.61183e-05
3.61735e-05
3.62373e-05
3.63103e-05
3.63923e-05
3.64842e-05
3.65868e-05
3.67003e-05
3.68256e-05
3.69633e-05
3.71145e-05
3.72798e-05
3.746e-05
3.7655e-05
3.78647e-05
3.80901e-05
3.83302e-05
3.85846e-05
3.88536e-05
3.91354e-05
3.94298e-05
3.97365e-05
4.00552e-05
4.03865e-05
4.07314e-05
4.10901e-05
4.14629e-05
4.18506e-05
4.22523e-05
4.26696e-05
4.31038e-05
4.35541e-05
4.40218e-05
4.4508e-05
4.50136e-05
4.55399e-05
4.60865e-05
4.66543e-05
4.72442e-05
4.78608e-05
4.84954e-05
4.91093e-05
4.96616e-05
5.06777e-05
5.42336e-05
5.42956e-05
5.4786e-05
5.86709e-05
6.04482e-05
6.46164e-05
6.70161e-05
6.78413e-05
6.79926e-05
6.6701e-05
4.17423e-05
3.60996e-05
3.58401e-05
3.57051e-05
3.55867e-05
3.54786e-05
3.53786e-05
3.5287e-05
3.52033e-05
3.51262e-05
3.50552e-05
3.49901e-05
3.49307e-05
3.48776e-05
3.48292e-05
3.47862e-05
3.47492e-05
3.47168e-05
3.46896e-05
3.46672e-05
3.46495e-05
3.46371e-05
3.46299e-05
3.46278e-05
3.46313e-05
3.46402e-05
3.46542e-05
3.46737e-05
3.46996e-05
3.47319e-05
3.47708e-05
3.48165e-05
3.48695e-05
3.49306e-05
3.50002e-05
3.50791e-05
3.51675e-05
3.52657e-05
3.53741e-05
3.54937e-05
3.56254e-05
3.57695e-05
3.59271e-05
3.60985e-05
3.62845e-05
3.64852e-05
3.67004e-05
3.69311e-05
3.71766e-05
3.74357e-05
3.77083e-05
3.79935e-05
3.82904e-05
3.85988e-05
3.8919e-05
3.92508e-05
3.95949e-05
3.99515e-05
4.03212e-05
4.07046e-05
4.11016e-05
4.15125e-05
4.19384e-05
4.23794e-05
4.28359e-05
4.33094e-05
4.38014e-05
4.43123e-05
4.48427e-05
4.53929e-05
4.59635e-05
4.65617e-05
4.71641e-05
4.77472e-05
4.82538e-05
4.93336e-05
5.3112e-05
5.26889e-05
5.31802e-05
5.65934e-05
5.80591e-05
6.18951e-05
6.35359e-05
6.40134e-05
6.38596e-05
6.26422e-05
4.00809e-05
3.47329e-05
3.44717e-05
3.43417e-05
3.42281e-05
3.41249e-05
3.40298e-05
3.39425e-05
3.3863e-05
3.37898e-05
3.3723e-05
3.36623e-05
3.36066e-05
3.35564e-05
3.35114e-05
3.34719e-05
3.34383e-05
3.3409e-05
3.33847e-05
3.33659e-05
3.33517e-05
3.33425e-05
3.33386e-05
3.33395e-05
3.33459e-05
3.33582e-05
3.33759e-05
3.3399e-05
3.34287e-05
3.3465e-05
3.35077e-05
3.35573e-05
3.36145e-05
3.36798e-05
3.37539e-05
3.38376e-05
3.39309e-05
3.40339e-05
3.41474e-05
3.42724e-05
3.44094e-05
3.45587e-05
3.47212e-05
3.48979e-05
3.50893e-05
3.52947e-05
3.55147e-05
3.57496e-05
3.59989e-05
3.62621e-05
3.65379e-05
3.68255e-05
3.71251e-05
3.74351e-05
3.77559e-05
3.80876e-05
3.84303e-05
3.8785e-05
3.91518e-05
3.95313e-05
3.99233e-05
4.03279e-05
4.07455e-05
4.11771e-05
4.16233e-05
4.20853e-05
4.25644e-05
4.30609e-05
4.3576e-05
4.411e-05
4.46632e-05
4.52437e-05
4.58144e-05
4.63694e-05
4.68339e-05
4.80013e-05
5.17606e-05
5.10218e-05
5.15819e-05
5.44642e-05
5.57377e-05
5.92527e-05
6.02369e-05
6.0434e-05
6.01099e-05
5.89946e-05
3.85059e-05
3.34079e-05
3.31408e-05
3.30136e-05
3.29034e-05
3.28033e-05
3.27115e-05
3.26272e-05
3.25503e-05
3.24798e-05
3.24152e-05
3.23563e-05
3.2303e-05
3.22552e-05
3.22127e-05
3.21753e-05
3.21431e-05
3.21158e-05
3.20937e-05
3.20769e-05
3.20649e-05
3.20582e-05
3.20563e-05
3.20596e-05
3.20684e-05
3.20827e-05
3.21031e-05
3.21293e-05
3.21616e-05
3.2201e-05
3.22469e-05
3.22999e-05
3.23611e-05
3.24303e-05
3.25083e-05
3.2596e-05
3.26933e-05
3.28007e-05
3.29188e-05
3.30486e-05
3.31905e-05
3.33445e-05
3.35116e-05
3.3693e-05
3.38888e-05
3.40987e-05
3.43232e-05
3.45619e-05
3.4815e-05
3.50813e-05
3.53597e-05
3.565e-05
3.59512e-05
3.62621e-05
3.65834e-05
3.69142e-05
3.72556e-05
3.76082e-05
3.79719e-05
3.8347e-05
3.8733e-05
3.91311e-05
3.95412e-05
3.99634e-05
4.03998e-05
4.08505e-05
4.13165e-05
4.17992e-05
4.22998e-05
4.28177e-05
4.33543e-05
4.39158e-05
4.44567e-05
4.4983e-05
4.54107e-05
4.66289e-05
5.05257e-05
4.93447e-05
4.99594e-05
5.23e-05
5.3487e-05
5.66914e-05
5.71529e-05
5.71346e-05
5.6717e-05
5.57249e-05
3.69681e-05
3.20943e-05
3.18223e-05
3.16973e-05
3.15905e-05
3.14935e-05
3.14045e-05
3.13227e-05
3.12481e-05
3.118e-05
3.11174e-05
3.10609e-05
3.10097e-05
3.09639e-05
3.09231e-05
3.08874e-05
3.08571e-05
3.08319e-05
3.0812e-05
3.07969e-05
3.07869e-05
3.07821e-05
3.07824e-05
3.0788e-05
3.07991e-05
3.08161e-05
3.08391e-05
3.08679e-05
3.09032e-05
3.09456e-05
3.09946e-05
3.10509e-05
3.11158e-05
3.1189e-05
3.1271e-05
3.13625e-05
3.1464e-05
3.15759e-05
3.16988e-05
3.18333e-05
3.19796e-05
3.21382e-05
3.23101e-05
3.24959e-05
3.26959e-05
3.29098e-05
3.3138e-05
3.33805e-05
3.36367e-05
3.39056e-05
3.41863e-05
3.44782e-05
3.47808e-05
3.50926e-05
3.54133e-05
3.57432e-05
3.60827e-05
3.6432e-05
3.67919e-05
3.71622e-05
3.75421e-05
3.79332e-05
3.83353e-05
3.87484e-05
3.9174e-05
3.96133e-05
4.00665e-05
4.05351e-05
4.10209e-05
4.15232e-05
4.20442e-05
4.2585e-05
4.30961e-05
4.35939e-05
4.39889e-05
4.52938e-05
4.90919e-05
4.76351e-05
4.83347e-05
5.01617e-05
5.13193e-05
5.41981e-05
5.42604e-05
5.40875e-05
5.36299e-05
5.27606e-05
3.5445e-05
3.07882e-05
3.0511e-05
3.0388e-05
3.02842e-05
3.01908e-05
3.0105e-05
3.00256e-05
2.99537e-05
2.98883e-05
2.98279e-05
2.9774e-05
2.97253e-05
2.96816e-05
2.96431e-05
2.96098e-05
2.95819e-05
2.95588e-05
2.95411e-05
2.95284e-05
2.95208e-05
2.95183e-05
2.95209e-05
2.95292e-05
2.95431e-05
2.95627e-05
2.95884e-05
2.96205e-05
2.96591e-05
2.97046e-05
2.97572e-05
2.98171e-05
2.98857e-05
2.99629e-05
3.00491e-05
3.01447e-05
3.02504e-05
3.0367e-05
3.04946e-05
3.06333e-05
3.0784e-05
3.09472e-05
3.11235e-05
3.13137e-05
3.15175e-05
3.17354e-05
3.19672e-05
3.22127e-05
3.24715e-05
3.27426e-05
3.30252e-05
3.33183e-05
3.36212e-05
3.39328e-05
3.42524e-05
3.45802e-05
3.4917e-05
3.52628e-05
3.56181e-05
3.59827e-05
3.63561e-05
3.67396e-05
3.71325e-05
3.75358e-05
3.79503e-05
3.83773e-05
3.88177e-05
3.92729e-05
3.97437e-05
4.02305e-05
4.07367e-05
4.12553e-05
4.17367e-05
4.22074e-05
4.25762e-05
4.39297e-05
4.7492e-05
4.59443e-05
4.67114e-05
4.80767e-05
4.92371e-05
5.17601e-05
5.15203e-05
5.12555e-05
5.08058e-05
5.00497e-05
3.39601e-05
2.94933e-05
2.92125e-05
2.90919e-05
2.89915e-05
2.89016e-05
2.88193e-05
2.87436e-05
2.86747e-05
2.8612e-05
2.85544e-05
2.85031e-05
2.8457e-05
2.84157e-05
2.83798e-05
2.83492e-05
2.83239e-05
2.83036e-05
2.82884e-05
2.82781e-05
2.82732e-05
2.82734e-05
2.82789e-05
2.82898e-05
2.83065e-05
2.83292e-05
2.8358e-05
2.83933e-05
2.84352e-05
2.84842e-05
2.85406e-05
2.86045e-05
2.86768e-05
2.87581e-05
2.88485e-05
2.89483e-05
2.90585e-05
2.91795e-05
2.93113e-05
2.94544e-05
2.96094e-05
2.9777e-05
2.99575e-05
3.01515e-05
3.03589e-05
3.05803e-05
3.0815e-05
3.1063e-05
3.1324e-05
3.15968e-05
3.18805e-05
3.21738e-05
3.24761e-05
3.27863e-05
3.31041e-05
3.34294e-05
3.37627e-05
3.41038e-05
3.44537e-05
3.48116e-05
3.51775e-05
3.55524e-05
3.5936e-05
3.63291e-05
3.67323e-05
3.7147e-05
3.75741e-05
3.80146e-05
3.84705e-05
3.89425e-05
3.94348e-05
3.99302e-05
4.03819e-05
4.08259e-05
4.1173e-05
4.25802e-05
4.58065e-05
4.42947e-05
4.50971e-05
4.60676e-05
4.7245e-05
4.93825e-05
4.89187e-05
4.86121e-05
4.82045e-05
4.75579e-05
3.25049e-05
2.82231e-05
2.79373e-05
2.78189e-05
2.77223e-05
2.76358e-05
2.75569e-05
2.74846e-05
2.74189e-05
2.73592e-05
2.73048e-05
2.72565e-05
2.72131e-05
2.71746e-05
2.71415e-05
2.71137e-05
2.7091e-05
2.70733e-05
2.70606e-05
2.70531e-05
2.70508e-05
2.70538e-05
2.70623e-05
2.70763e-05
2.7096e-05
2.71217e-05
2.71539e-05
2.71925e-05
2.72377e-05
2.72902e-05
2.73502e-05
2.74181e-05
2.74946e-05
2.758e-05
2.76744e-05
2.77785e-05
2.78931e-05
2.80183e-05
2.81542e-05
2.83016e-05
2.84608e-05
2.86321e-05
2.88163e-05
2.90138e-05
2.92245e-05
2.94485e-05
2.96856e-05
2.99353e-05
3.01975e-05
3.04713e-05
3.07549e-05
3.10477e-05
3.13489e-05
3.16571e-05
3.19722e-05
3.22936e-05
3.26223e-05
3.29581e-05
3.33013e-05
3.36518e-05
3.40099e-05
3.43757e-05
3.47493e-05
3.51315e-05
3.5523e-05
3.59247e-05
3.6338e-05
3.67645e-05
3.72063e-05
3.76635e-05
3.81416e-05
3.86135e-05
3.90363e-05
3.94551e-05
3.97846e-05
4.12197e-05
4.4053e-05
4.26687e-05
4.34775e-05
4.41336e-05
4.53424e-05
4.70871e-05
4.64613e-05
4.61349e-05
4.57925e-05
4.52533e-05
3.11018e-05
2.69819e-05
2.66925e-05
2.65759e-05
2.64832e-05
2.64005e-05
2.63248e-05
2.6256e-05
2.61934e-05
2.61367e-05
2.60853e-05
2.604e-05
2.59998e-05
2.59641e-05
2.59336e-05
2.59085e-05
2.58885e-05
2.58734e-05
2.58633e-05
2.58587e-05
2.58593e-05
2.5865e-05
2.58763e-05
2.58933e-05
2.5916e-05
2.59449e-05
2.59804e-05
2.60225e-05
2.60711e-05
2.61272e-05
2.61911e-05
2.62628e-05
2.6343e-05
2.64323e-05
2.65307e-05
2.6639e-05
2.67575e-05
2.68867e-05
2.70267e-05
2.71778e-05
2.73408e-05
2.75158e-05
2.77032e-05
2.79035e-05
2.81168e-05
2.83427e-05
2.85813e-05
2.88325e-05
2.9095e-05
2.93686e-05
2.96519e-05
2.99434e-05
3.02422e-05
3.05475e-05
3.0859e-05
3.11762e-05
3.14995e-05
3.18288e-05
3.21648e-05
3.25074e-05
3.28567e-05
3.32127e-05
3.35754e-05
3.39458e-05
3.43251e-05
3.47137e-05
3.51139e-05
3.55266e-05
3.59539e-05
3.63965e-05
3.68599e-05
3.73072e-05
3.77039e-05
3.80998e-05
3.84102e-05
3.98554e-05
4.22813e-05
4.10626e-05
4.18547e-05
4.22767e-05
4.3522e-05
4.48864e-05
4.41501e-05
4.38132e-05
4.35449e-05
4.31012e-05
2.9744e-05
2.57736e-05
2.5482e-05
2.53673e-05
2.52781e-05
2.51989e-05
2.5127e-05
2.50614e-05
2.50022e-05
2.49488e-05
2.49003e-05
2.48577e-05
2.48204e-05
2.47876e-05
2.47596e-05
2.47371e-05
2.47198e-05
2.47075e-05
2.47004e-05
2.46984e-05
2.47015e-05
2.47102e-05
2.47244e-05
2.47443e-05
2.47701e-05
2.48023e-05
2.48412e-05
2.48865e-05
2.49385e-05
2.49983e-05
2.50659e-05
2.51414e-05
2.52254e-05
2.53184e-05
2.54207e-05
2.55329e-05
2.56551e-05
2.5788e-05
2.59316e-05
2.60863e-05
2.62525e-05
2.64306e-05
2.66206e-05
2.68233e-05
2.70383e-05
2.72657e-05
2.75051e-05
2.77566e-05
2.80192e-05
2.82919e-05
2.85736e-05
2.88631e-05
2.91587e-05
2.94604e-05
2.97672e-05
3.0079e-05
3.03962e-05
3.07184e-05
3.10463e-05
3.13802e-05
3.17199e-05
3.20655e-05
3.24173e-05
3.27758e-05
3.31426e-05
3.35185e-05
3.3905e-05
3.43034e-05
3.47168e-05
3.5146e-05
3.55935e-05
3.60144e-05
3.63878e-05
3.67619e-05
3.70482e-05
3.84882e-05
4.05159e-05
3.94834e-05
4.02284e-05
4.0489e-05
4.17795e-05
4.27864e-05
4.19795e-05
4.16296e-05
4.14417e-05
4.10757e-05
2.84397e-05
2.46002e-05
2.43086e-05
2.41954e-05
2.41099e-05
2.40341e-05
2.39655e-05
2.39036e-05
2.38475e-05
2.37971e-05
2.37519e-05
2.37118e-05
2.3677e-05
2.36471e-05
2.36221e-05
2.36024e-05
2.35879e-05
2.35783e-05
2.35739e-05
2.35747e-05
2.35807e-05
2.35922e-05
2.36093e-05
2.36322e-05
2.36613e-05
2.36967e-05
2.37386e-05
2.3787e-05
2.38427e-05
2.39061e-05
2.3977e-05
2.40562e-05
2.41438e-05
2.42404e-05
2.43463e-05
2.44622e-05
2.4588e-05
2.47242e-05
2.4871e-05
2.5029e-05
2.5198e-05
2.53786e-05
2.55707e-05
2.5775e-05
2.59914e-05
2.62195e-05
2.64594e-05
2.67105e-05
2.6972e-05
2.7243e-05
2.75221e-05
2.78082e-05
2.81002e-05
2.83975e-05
2.86986e-05
2.90042e-05
2.93145e-05
2.96289e-05
2.99481e-05