/*--------------------------------*- C++ -*----------------------------------*\
  =========                 |
  \\      /  F ield         | OpenFOAM: The Open Source CFD Toolbox
   \\    /   O peration     | Website:  https://openfoam.org
    \\  /    A nd           | Version:  9
     \\/     M anipulation  |
\*---------------------------------------------------------------------------*/
FoamFile
{
    format      ascii;
    class       volScalarField;
    location    "1500";
    object      nut;
}
// * * * * * * * * * * * * * * * * * * * * * * * * * * * * * * * * * * * * * //

dimensions      [0 2 -1 0 0 0 0];

internalField   nonuniform List<scalar> 
13617
(
7.79505e-07
8.478e-07
8.48402e-07
8.49388e-07
8.50584e-07
8.51876e-07
8.5323e-07
8.54633e-07
8.56075e-07
8.5754e-07
8.59027e-07
8.60531e-07
8.62047e-07
8.63578e-07
8.65121e-07
8.66674e-07
8.68239e-07
8.6981e-07
8.71382e-07
8.72951e-07
8.74514e-07
8.7607e-07
8.77618e-07
8.79154e-07
8.80677e-07
8.82183e-07
8.83673e-07
8.85145e-07
8.86596e-07
8.88027e-07
8.89438e-07
8.90829e-07
8.92199e-07
8.93553e-07
8.94892e-07
8.96216e-07
8.97527e-07
8.98824e-07
9.00108e-07
9.0138e-07
9.02644e-07
9.03906e-07
9.05175e-07
9.06452e-07
9.07737e-07
9.09029e-07
9.10324e-07
9.11615e-07
9.12893e-07
9.14146e-07
9.15359e-07
9.16524e-07
9.17633e-07
9.18682e-07
9.19671e-07
9.20606e-07
9.2149e-07
9.22332e-07
9.23142e-07
9.23935e-07
9.24726e-07
9.25532e-07
9.26369e-07
9.27263e-07
9.28235e-07
9.29297e-07
9.30463e-07
9.31733e-07
9.33101e-07
9.34549e-07
9.36063e-07
9.37709e-07
9.3966e-07
9.41988e-07
9.44791e-07
9.49577e-07
9.5712e-07
9.69558e-07
9.95571e-07
1.0331e-06
1.04882e-06
1.06079e-06
1.14697e-06
1.30035e-06
1.3984e-06
1.42583e-06
7.84015e-07
8.50782e-07
8.51353e-07
8.52272e-07
8.53396e-07
8.54615e-07
8.55891e-07
8.57211e-07
8.58566e-07
8.59948e-07
8.61348e-07
8.62762e-07
8.64188e-07
8.65626e-07
8.67075e-07
8.68531e-07
8.69998e-07
8.71471e-07
8.72943e-07
8.74411e-07
8.75874e-07
8.7733e-07
8.78777e-07
8.80212e-07
8.81634e-07
8.83041e-07
8.84431e-07
8.85805e-07
8.8716e-07
8.88495e-07
8.8981e-07
8.91108e-07
8.92389e-07
8.93653e-07
8.94904e-07
8.96144e-07
8.97373e-07
8.98591e-07
8.99797e-07
9.00994e-07
9.02187e-07
9.03381e-07
9.04583e-07
9.05798e-07
9.07026e-07
9.08264e-07
9.09508e-07
9.10753e-07
9.11988e-07
9.13202e-07
9.14381e-07
9.15512e-07
9.1659e-07
9.17611e-07
9.18576e-07
9.19487e-07
9.20349e-07
9.21172e-07
9.21967e-07
9.22748e-07
9.23529e-07
9.24329e-07
9.25166e-07
9.26064e-07
9.27044e-07
9.28121e-07
9.29309e-07
9.30614e-07
9.32028e-07
9.33531e-07
9.35108e-07
9.3682e-07
9.38852e-07
9.41337e-07
9.44117e-07
9.48817e-07
9.55659e-07
9.67729e-07
1.00214e-06
1.0373e-06
1.04975e-06
1.07312e-06
1.20255e-06
1.38562e-06
1.46093e-06
1.45183e-06
7.98888e-07
8.54236e-07
8.54748e-07
8.55578e-07
8.56608e-07
8.5773e-07
8.58906e-07
8.60126e-07
8.6138e-07
8.62652e-07
8.63945e-07
8.65248e-07
8.6656e-07
8.67884e-07
8.69221e-07
8.70564e-07
8.71916e-07
8.73272e-07
8.74629e-07
8.75982e-07
8.7733e-07
8.78671e-07
8.80003e-07
8.81324e-07
8.82634e-07
8.83931e-07
8.85211e-07
8.86476e-07
8.87725e-07
8.88955e-07
8.90169e-07
8.91366e-07
8.92549e-07
8.93719e-07
8.94878e-07
8.96029e-07
8.97172e-07
8.98306e-07
8.99432e-07
9.00552e-07
9.01671e-07
9.02794e-07
9.03931e-07
9.05083e-07
9.06252e-07
9.07435e-07
9.08628e-07
9.09825e-07
9.11017e-07
9.1219e-07
9.13331e-07
9.14428e-07
9.15475e-07
9.16468e-07
9.17407e-07
9.18294e-07
9.19136e-07
9.19943e-07
9.20726e-07
9.21498e-07
9.22275e-07
9.23077e-07
9.23921e-07
9.24831e-07
9.25829e-07
9.26931e-07
9.28152e-07
9.29498e-07
9.30965e-07
9.32532e-07
9.34183e-07
9.35976e-07
9.38101e-07
9.40762e-07
9.43513e-07
9.48022e-07
9.54304e-07
9.66455e-07
1.00892e-06
1.0355e-06
1.04964e-06
1.08958e-06
1.24826e-06
1.43649e-06
1.50222e-06
1.48193e-06
8.14422e-07
8.57916e-07
8.58358e-07
8.59087e-07
8.60012e-07
8.61023e-07
8.62087e-07
8.63191e-07
8.64324e-07
8.6548e-07
8.66651e-07
8.67832e-07
8.69022e-07
8.70223e-07
8.71433e-07
8.72651e-07
8.7388e-07
8.75114e-07
8.76347e-07
8.77576e-07
8.78801e-07
8.80019e-07
8.8123e-07
8.82432e-07
8.83623e-07
8.84803e-07
8.85968e-07
8.8712e-07
8.88257e-07
8.89379e-07
8.90487e-07
8.9158e-07
8.92663e-07
8.93737e-07
8.94801e-07
8.9586e-07
8.96916e-07
8.97965e-07
8.9901e-07
9.00052e-07
9.01096e-07
9.0215e-07
9.03221e-07
9.04312e-07
9.05422e-07
9.0655e-07
9.07693e-07
9.08845e-07
9.09994e-07
9.11127e-07
9.12231e-07
9.13296e-07
9.14312e-07
9.15275e-07
9.16187e-07
9.17051e-07
9.17873e-07
9.18664e-07
9.19435e-07
9.202e-07
9.20976e-07
9.21783e-07
9.22637e-07
9.23564e-07
9.24585e-07
9.25715e-07
9.26971e-07
9.28358e-07
9.29875e-07
9.31501e-07
9.33222e-07
9.351e-07
9.37305e-07
9.40113e-07
9.42848e-07
9.47154e-07
9.53039e-07
9.66188e-07
1.01895e-06
1.03277e-06
1.04884e-06
1.10712e-06
1.27753e-06
1.45675e-06
1.52869e-06
1.52068e-06
8.28932e-07
8.6183e-07
8.62163e-07
8.62777e-07
8.63581e-07
8.6447e-07
8.65406e-07
8.66382e-07
8.67385e-07
8.68407e-07
8.69444e-07
8.70493e-07
8.71547e-07
8.72612e-07
8.7369e-07
8.74777e-07
8.75869e-07
8.76968e-07
8.78069e-07
8.79168e-07
8.80263e-07
8.81352e-07
8.82435e-07
8.83512e-07
8.84579e-07
8.85636e-07
8.86682e-07
8.87717e-07
8.8874e-07
8.8975e-07
8.90748e-07
8.91736e-07
8.92716e-07
8.93689e-07
8.94657e-07
8.95624e-07
8.9659e-07
8.97552e-07
8.98515e-07
8.99481e-07
9.00452e-07
9.01436e-07
9.02441e-07
9.03472e-07
9.04526e-07
9.05602e-07
9.06697e-07
9.07804e-07
9.08912e-07
9.10009e-07
9.11078e-07
9.12109e-07
9.13096e-07
9.14034e-07
9.14923e-07
9.15765e-07
9.16568e-07
9.17345e-07
9.18105e-07
9.18863e-07
9.19638e-07
9.20448e-07
9.21312e-07
9.22254e-07
9.23296e-07
9.24453e-07
9.25741e-07
9.27166e-07
9.28729e-07
9.30414e-07
9.32208e-07
9.34172e-07
9.36455e-07
9.39378e-07
9.42168e-07
9.46364e-07
9.51948e-07
9.68466e-07
1.02619e-06
1.03064e-06
1.05053e-06
1.12527e-06
1.29763e-06
1.45947e-06
1.54292e-06
1.55505e-06
8.41996e-07
8.65882e-07
8.6611e-07
8.66604e-07
8.67278e-07
8.68031e-07
8.6883e-07
8.69665e-07
8.70527e-07
8.71407e-07
8.72301e-07
8.73204e-07
8.74115e-07
8.75037e-07
8.75969e-07
8.7691e-07
8.77861e-07
8.7882e-07
8.7978e-07
8.80739e-07
8.81696e-07
8.82649e-07
8.83599e-07
8.84545e-07
8.85483e-07
8.86414e-07
8.87336e-07
8.88249e-07
8.89154e-07
8.9005e-07
8.90936e-07
8.91815e-07
8.92691e-07
8.93562e-07
8.94433e-07
8.95305e-07
8.9618e-07
8.97057e-07
8.97939e-07
8.98826e-07
8.99723e-07
9.00638e-07
9.01579e-07
9.0255e-07
9.03549e-07
9.04575e-07
9.05625e-07
9.0669e-07
9.07761e-07
9.08823e-07
9.09862e-07
9.10866e-07
9.11828e-07
9.12744e-07
9.13612e-07
9.14436e-07
9.15225e-07
9.1599e-07
9.16743e-07
9.17498e-07
9.18274e-07
9.19088e-07
9.19962e-07
9.20919e-07
9.21982e-07
9.23165e-07
9.24486e-07
9.25954e-07
9.27569e-07
9.2932e-07
9.31197e-07
9.33262e-07
9.35642e-07
9.38679e-07
9.41627e-07
9.45781e-07
9.5133e-07
9.72555e-07
1.02402e-06
1.02879e-06
1.0567e-06
1.14547e-06
1.31323e-06
1.45627e-06
1.55021e-06
1.58052e-06
8.53629e-07
8.70022e-07
8.7014e-07
8.70508e-07
8.71047e-07
8.71659e-07
8.72315e-07
8.73003e-07
8.73713e-07
8.74441e-07
8.75183e-07
8.75933e-07
8.7669e-07
8.77457e-07
8.78239e-07
8.79028e-07
8.79827e-07
8.80636e-07
8.81449e-07
8.82261e-07
8.83075e-07
8.83886e-07
8.84697e-07
8.85507e-07
8.86311e-07
8.87111e-07
8.87906e-07
8.88695e-07
8.89479e-07
8.90256e-07
8.9103e-07
8.91801e-07
8.9257e-07
8.93339e-07
8.94111e-07
8.9489e-07
8.95676e-07
8.96468e-07
8.97267e-07
8.98077e-07
8.98902e-07
8.9975e-07
9.00629e-07
9.01542e-07
9.02488e-07
9.03467e-07
9.04474e-07
9.05502e-07
9.06538e-07
9.07569e-07
9.08582e-07
9.09562e-07
9.10504e-07
9.11401e-07
9.12253e-07
9.13066e-07
9.13846e-07
9.14605e-07
9.15355e-07
9.16112e-07
9.16893e-07
9.17716e-07
9.18605e-07
9.19581e-07
9.20667e-07
9.21882e-07
9.23245e-07
9.24765e-07
9.26445e-07
9.28276e-07
9.30254e-07
9.32439e-07
9.34952e-07
9.38132e-07
9.41299e-07
9.455e-07
9.51412e-07
9.77449e-07
1.01699e-06
1.02872e-06
1.06668e-06
1.16486e-06
1.3205e-06
1.44948e-06
1.55244e-06
1.59741e-06
8.64535e-07
8.74391e-07
8.74388e-07
8.74609e-07
8.74992e-07
8.75444e-07
8.75934e-07
8.76452e-07
8.76993e-07
8.77552e-07
8.78124e-07
8.78702e-07
8.79292e-07
8.79894e-07
8.80506e-07
8.8113e-07
8.81768e-07
8.82416e-07
8.83069e-07
8.83727e-07
8.84388e-07
8.85049e-07
8.85714e-07
8.86381e-07
8.87046e-07
8.8771e-07
8.88373e-07
8.89036e-07
8.89697e-07
8.90356e-07
8.91015e-07
8.91675e-07
8.92338e-07
8.93006e-07
8.93681e-07
8.94366e-07
8.95064e-07
8.95774e-07
8.96494e-07
8.9723e-07
8.97987e-07
8.9877e-07
8.99588e-07
9.00446e-07
9.01343e-07
9.02277e-07
9.03244e-07
9.04238e-07
9.05244e-07
9.06249e-07
9.07239e-07
9.08199e-07
9.09125e-07
9.10008e-07
9.10849e-07
9.11655e-07
9.12431e-07
9.1319e-07
9.13944e-07
9.14709e-07
9.15502e-07
9.16341e-07
9.17251e-07
9.18253e-07
9.19373e-07
9.2063e-07
9.22046e-07
9.2363e-07
9.2539e-07
9.27318e-07
9.29414e-07
9.31743e-07
9.34423e-07
9.3779e-07
9.41171e-07
9.45402e-07
9.52175e-07
9.83085e-07
1.01201e-06
1.03102e-06
1.07842e-06
1.17655e-06
1.32416e-06
1.43881e-06
1.54788e-06
1.59815e-06
8.75754e-07
8.79449e-07
8.79239e-07
8.79247e-07
8.7941e-07
8.79641e-07
8.79912e-07
8.80214e-07
8.80543e-07
8.8089e-07
8.81252e-07
8.81627e-07
8.82011e-07
8.82412e-07
8.82833e-07
8.83268e-07
8.8372e-07
8.84187e-07
8.84665e-07
8.8515e-07
8.85644e-07
8.86145e-07
8.86652e-07
8.87166e-07
8.87685e-07
8.88207e-07
8.88733e-07
8.89264e-07
8.89798e-07
8.90334e-07
8.90878e-07
8.91427e-07
8.91983e-07
8.92549e-07
8.93129e-07
8.93723e-07
8.94335e-07
8.94964e-07
8.95609e-07
8.96274e-07
8.96965e-07
8.97687e-07
8.98451e-07
8.99259e-07
9.0011e-07
9.01004e-07
9.01936e-07
9.02899e-07
9.0388e-07
9.04864e-07
9.05835e-07
9.06782e-07
9.07695e-07
9.0857e-07
9.09406e-07
9.10209e-07
9.10987e-07
9.11752e-07
9.12517e-07
9.13297e-07
9.1411e-07
9.14975e-07
9.15914e-07
9.16952e-07
9.18116e-07
9.19428e-07
9.20909e-07
9.22573e-07
9.24426e-07
9.26466e-07
9.28698e-07
9.3119e-07
9.34064e-07
9.37655e-07
9.41198e-07
9.4546e-07
9.53494e-07
9.90585e-07
1.01062e-06
1.03439e-06
1.08888e-06
1.17998e-06
1.33129e-06
1.42895e-06
1.53804e-06
1.58712e-06
8.87771e-07
8.85328e-07
8.84808e-07
8.84517e-07
8.84383e-07
8.84321e-07
8.84307e-07
8.84331e-07
8.84388e-07
8.84471e-07
8.84578e-07
8.84705e-07
8.8485e-07
8.8502e-07
8.85214e-07
8.85432e-07
8.85675e-07
8.85938e-07
8.86219e-07
8.86517e-07
8.86828e-07
8.87152e-07
8.87491e-07
8.87843e-07
8.88206e-07
8.88579e-07
8.88964e-07
8.89359e-07
8.89764e-07
8.90178e-07
8.90604e-07
8.91042e-07
8.91492e-07
8.91958e-07
8.92442e-07
8.92948e-07
8.93477e-07
8.94028e-07
8.94603e-07
8.95202e-07
8.95832e-07
8.96499e-07
8.97213e-07
8.97978e-07
8.98791e-07
8.99651e-07
9.00555e-07
9.01494e-07
9.02455e-07
9.03424e-07
9.04386e-07
9.05325e-07
9.06234e-07
9.07108e-07
9.07946e-07
9.08754e-07
9.0954e-07
9.10319e-07
9.11104e-07
9.11908e-07
9.1275e-07
9.1365e-07
9.14629e-07
9.15715e-07
9.16936e-07
9.18315e-07
9.19874e-07
9.21629e-07
9.23589e-07
9.25752e-07
9.2813e-07
9.30798e-07
9.33882e-07
9.37714e-07
9.41357e-07
9.45738e-07
9.5572e-07
1.00049e-06
1.01203e-06
1.03778e-06
1.09828e-06
1.18286e-06
1.33994e-06
1.42622e-06
1.51748e-06
1.56854e-06
8.98806e-07
8.91164e-07
8.90301e-07
8.89691e-07
8.89238e-07
8.88864e-07
8.88546e-07
8.8828e-07
8.88058e-07
8.87867e-07
8.8771e-07
8.87583e-07
8.87482e-07
8.87415e-07
8.87381e-07
8.87378e-07
8.87407e-07
8.87466e-07
8.87551e-07
8.87659e-07
8.87789e-07
8.87942e-07
8.88115e-07
8.88309e-07
8.8852e-07
8.8875e-07
8.88997e-07
8.89262e-07
8.89543e-07
8.89841e-07
8.90155e-07
8.90488e-07
8.90841e-07
8.91215e-07
8.91612e-07
8.92037e-07
8.92492e-07
8.92976e-07
8.93487e-07
8.94029e-07
8.94607e-07
8.95228e-07
8.95902e-07
8.96633e-07
8.97417e-07
8.98254e-07
8.99139e-07
9.00065e-07
9.01017e-07
9.01983e-07
9.02944e-07
9.03887e-07
9.04803e-07
9.05686e-07
9.06536e-07
9.07359e-07
9.08164e-07
9.08967e-07
9.0978e-07
9.10618e-07
9.11501e-07
9.12445e-07
9.13476e-07
9.1462e-07
9.15908e-07
9.17364e-07
9.19011e-07
9.20864e-07
9.22934e-07
9.25224e-07
9.2775e-07
9.30594e-07
9.33886e-07
9.37922e-07
9.41647e-07
9.4619e-07
9.59479e-07
1.00762e-06
1.01387e-06
1.04158e-06
1.10925e-06
1.18946e-06
1.34754e-06
1.42074e-06
1.49723e-06
1.53672e-06
9.06206e-07
8.95271e-07
8.94158e-07
8.93318e-07
8.92638e-07
8.92041e-07
8.91506e-07
8.91024e-07
8.90589e-07
8.90197e-07
8.89843e-07
8.89523e-07
8.89236e-07
8.88988e-07
8.88777e-07
8.88603e-07
8.88466e-07
8.88363e-07
8.88292e-07
8.8825e-07
8.88236e-07
8.88249e-07
8.8829e-07
8.88356e-07
8.88447e-07
8.88562e-07
8.88699e-07
8.88859e-07
8.89041e-07
8.89245e-07
8.89472e-07
8.89722e-07
8.89996e-07
8.90299e-07
8.90631e-07
8.90995e-07
8.91393e-07
8.91824e-07
8.92289e-07
8.92791e-07
8.93334e-07
8.93926e-07
8.94576e-07
8.95289e-07
8.96059e-07
8.96887e-07
8.97769e-07
8.98696e-07
8.99655e-07
9.0063e-07
9.01606e-07
9.02567e-07
9.03502e-07
9.04406e-07
9.05281e-07
9.06131e-07
9.06966e-07
9.07803e-07
9.08655e-07
9.09538e-07
9.10469e-07
9.11467e-07
9.12557e-07
9.13767e-07
9.15127e-07
9.16662e-07
9.18396e-07
9.20346e-07
9.22523e-07
9.24933e-07
9.27597e-07
9.30605e-07
9.34089e-07
9.38252e-07
9.4203e-07
9.46756e-07
9.6422e-07
1.00823e-06
1.01434e-06
1.04704e-06
1.11908e-06
1.19635e-06
1.34637e-06
1.40837e-06
1.47635e-06
1.50089e-06
9.08592e-07
8.96375e-07
8.95161e-07
8.94253e-07
8.935e-07
8.9283e-07
8.92221e-07
8.91663e-07
8.91152e-07
8.90682e-07
8.90251e-07
8.89853e-07
8.89488e-07
8.89161e-07
8.88872e-07
8.88619e-07
8.88402e-07
8.8822e-07
8.88072e-07
8.87954e-07
8.87866e-07
8.87807e-07
8.87777e-07
8.87775e-07
8.87801e-07
8.87852e-07
8.8793e-07
8.88033e-07
8.88161e-07
8.88314e-07
8.88493e-07
8.88698e-07
8.88931e-07
8.89196e-07
8.89494e-07
8.89827e-07
8.90198e-07
8.90606e-07
8.91052e-07
8.91538e-07
8.92071e-07
8.92657e-07
8.93305e-07
8.94019e-07
8.94796e-07
8.95635e-07
8.96532e-07
8.97478e-07
8.9846e-07
8.99461e-07
9.00465e-07
9.01456e-07
9.02424e-07
9.03363e-07
9.04273e-07
9.05159e-07
9.06033e-07
9.06912e-07
9.0781e-07
9.08743e-07
9.09728e-07
9.10784e-07
9.11936e-07
9.13211e-07
9.1464e-07
9.16248e-07
9.18061e-07
9.20096e-07
9.22368e-07
9.24884e-07
9.27672e-07
9.30826e-07
9.34487e-07
9.38708e-07
9.42486e-07
9.47422e-07
9.69366e-07
1.00671e-06
1.01439e-06
1.05361e-06
1.12319e-06
1.19995e-06
1.33443e-06
1.38971e-06
1.45358e-06
1.47033e-06
9.06674e-07
8.94426e-07
8.93249e-07
8.92407e-07
8.9172e-07
8.91112e-07
8.9056e-07
8.90055e-07
8.89593e-07
8.89167e-07
8.88775e-07
8.88414e-07
8.8808e-07
8.87779e-07
8.87511e-07
8.87277e-07
8.87076e-07
8.86906e-07
8.86767e-07
8.86656e-07
8.86572e-07
8.86516e-07
8.86487e-07
8.86486e-07
8.86512e-07
8.86562e-07
8.86639e-07
8.8674e-07
8.86867e-07
8.8702e-07
8.87198e-07
8.87404e-07
8.8764e-07
8.87907e-07
8.88209e-07
8.88547e-07
8.88925e-07
8.89343e-07
8.898e-07
8.903e-07
8.90849e-07
8.91454e-07
8.92122e-07
8.9286e-07
8.93664e-07
8.94533e-07
8.95462e-07
8.96442e-07
8.9746e-07
8.98501e-07
8.99546e-07
9.00579e-07
9.01588e-07
9.02567e-07
9.03517e-07
9.04445e-07
9.05362e-07
9.06286e-07
9.07231e-07
9.08213e-07
9.09249e-07
9.10361e-07
9.1157e-07
9.12904e-07
9.14393e-07
9.16064e-07
9.17945e-07
9.20056e-07
9.22412e-07
9.25024e-07
9.27923e-07
9.31211e-07
9.35045e-07
9.39264e-07
9.43017e-07
9.4826e-07
9.74801e-07
1.00585e-06
1.0141e-06
1.06034e-06
1.12224e-06
1.20014e-06
1.31873e-06
1.37049e-06
1.43039e-06
1.44122e-06
9.02248e-07
8.90465e-07
8.89388e-07
8.8868e-07
8.88127e-07
8.87652e-07
8.87229e-07
8.86849e-07
8.86507e-07
8.86197e-07
8.85915e-07
8.85658e-07
8.85423e-07
8.85216e-07
8.85037e-07
8.84887e-07
8.84764e-07
8.84669e-07
8.84599e-07
8.84555e-07
8.84534e-07
8.84535e-07
8.84562e-07
8.84614e-07
8.8469e-07
8.84788e-07
8.8491e-07
8.85055e-07
8.85223e-07
8.85415e-07
8.85632e-07
8.85876e-07
8.86148e-07
8.86451e-07
8.86788e-07
8.87163e-07
8.87577e-07
8.8803e-07
8.88523e-07
8.89061e-07
8.89648e-07
8.9029e-07
8.90998e-07
8.91776e-07
8.9262e-07
8.93531e-07
8.94503e-07
8.95528e-07
8.96592e-07
8.97678e-07
8.98769e-07
8.99845e-07
9.00898e-07
9.01921e-07
9.02911e-07
9.03879e-07
9.04838e-07
9.05804e-07
9.06792e-07
9.0782e-07
9.08904e-07
9.10064e-07
9.11322e-07
9.12707e-07
9.14251e-07
9.15979e-07
9.17922e-07
9.20104e-07
9.22542e-07
9.25248e-07
9.2826e-07
9.31684e-07
9.35713e-07
9.39885e-07
9.43602e-07
9.49325e-07
9.80594e-07
1.00577e-06
1.01334e-06
1.06689e-06
1.12031e-06
1.19931e-06
1.303e-06
1.35168e-06
1.4048e-06
1.40886e-06
8.97233e-07
8.8589e-07
8.84925e-07
8.8435e-07
8.83936e-07
8.83598e-07
8.83312e-07
8.83064e-07
8.82851e-07
8.82666e-07
8.82506e-07
8.82367e-07
8.82246e-07
8.82149e-07
8.82075e-07
8.82026e-07
8.82001e-07
8.82e-07
8.8202e-07
8.82062e-07
8.82123e-07
8.82205e-07
8.82308e-07
8.82432e-07
8.82578e-07
8.82744e-07
8.82931e-07
8.83138e-07
8.83366e-07
8.83616e-07
8.83889e-07
8.84187e-07
8.84511e-07
8.84866e-07
8.85255e-07
8.85679e-07
8.86142e-07
8.86643e-07
8.87184e-07
8.87769e-07
8.88403e-07
8.89092e-07
8.89846e-07
8.90669e-07
8.9156e-07
8.92518e-07
8.93537e-07
8.94608e-07
8.95718e-07
8.96851e-07
8.97986e-07
8.99106e-07
9.00201e-07
9.01263e-07
9.02292e-07
9.03297e-07
9.04293e-07
9.05298e-07
9.06326e-07
9.07395e-07
9.08523e-07
9.09728e-07
9.11035e-07
9.12471e-07
9.14069e-07
9.15857e-07
9.17869e-07
9.20128e-07
9.22658e-07
9.25472e-07
9.28613e-07
9.3219e-07
9.36414e-07
9.40549e-07
9.44209e-07
9.50727e-07
9.86782e-07
1.00583e-06
1.01274e-06
1.07287e-06
1.11941e-06
1.19713e-06
1.28642e-06
1.33153e-06
1.37563e-06
1.37298e-06
8.92935e-07
8.81856e-07
8.80957e-07
8.80476e-07
8.80161e-07
8.79922e-07
8.79733e-07
8.79583e-07
8.79466e-07
8.79376e-07
8.79306e-07
8.79256e-07
8.79223e-07
8.79211e-07
8.7922e-07
8.79249e-07
8.79303e-07
8.79378e-07
8.79472e-07
8.79584e-07
8.79715e-07
8.79864e-07
8.80032e-07
8.80219e-07
8.80426e-07
8.80651e-07
8.80895e-07
8.81158e-07
8.81441e-07
8.81744e-07
8.82068e-07
8.82416e-07
8.82789e-07
8.83192e-07
8.83628e-07
8.84099e-07
8.84608e-07
8.85156e-07
8.85742e-07
8.86371e-07
8.87049e-07
8.87783e-07
8.88581e-07
8.89448e-07
8.90383e-07
8.91385e-07
8.92448e-07
8.93563e-07
8.94717e-07
8.95894e-07
8.97072e-07
8.98233e-07
8.99367e-07
9.00467e-07
9.01533e-07
9.02575e-07
9.03608e-07
9.0465e-07
9.0572e-07
9.06831e-07
9.08004e-07
9.09259e-07
9.1062e-07
9.12115e-07
9.13776e-07
9.15637e-07
9.1773e-07
9.20085e-07
9.22725e-07
9.25669e-07
9.28961e-07
9.32716e-07
9.37105e-07
9.41259e-07
9.44841e-07
9.52431e-07
9.93238e-07
1.00634e-06
1.01316e-06
1.07699e-06
1.11856e-06
1.19354e-06
1.27003e-06
1.31158e-06
1.34558e-06
1.33848e-06
8.89921e-07
8.78861e-07
8.77985e-07
8.77542e-07
8.77272e-07
8.7708e-07
8.76936e-07
8.76833e-07
8.76762e-07
8.76716e-07
8.76692e-07
8.76685e-07
8.76695e-07
8.76727e-07
8.76778e-07
8.7685e-07
8.76944e-07
8.7706e-07
8.77195e-07
8.77347e-07
8.77516e-07
8.77704e-07
8.7791e-07
8.78134e-07
8.78378e-07
8.78639e-07
8.78918e-07
8.79217e-07
8.79534e-07
8.79871e-07
8.8023e-07
8.80613e-07
8.8102e-07
8.81456e-07
8.81926e-07
8.82432e-07
8.82976e-07
8.83558e-07
8.84181e-07
8.84846e-07
8.85561e-07
8.86332e-07
8.87167e-07
8.88073e-07
8.89047e-07
8.90088e-07
8.91191e-07
8.92348e-07
8.93544e-07
8.94762e-07
8.95982e-07
8.97184e-07
8.98359e-07
8.99498e-07
9.00602e-07
9.01683e-07
9.02756e-07
9.03842e-07
9.04957e-07
9.06119e-07
9.07346e-07
9.0866e-07
9.10086e-07
9.11652e-07
9.13392e-07
9.1534e-07
9.17532e-07
9.2e-07
9.22773e-07
9.25867e-07
9.29335e-07
9.33298e-07
9.37811e-07
9.42033e-07
9.45505e-07
9.54542e-07
1.00057e-06
1.00713e-06
1.01474e-06
1.07878e-06
1.1162e-06
1.1884e-06
1.25354e-06
1.29034e-06
1.31419e-06
1.30456e-06
8.87897e-07
8.76773e-07
8.75879e-07
8.75434e-07
8.75165e-07
8.74977e-07
8.74838e-07
8.74738e-07
8.74673e-07
8.74632e-07
8.74614e-07
8.74615e-07
8.74631e-07
8.74669e-07
8.74728e-07
8.74809e-07
8.74913e-07
8.75039e-07
8.75184e-07
8.75347e-07
8.75528e-07
8.75728e-07
8.75946e-07
8.76183e-07
8.76439e-07
8.76716e-07
8.7701e-07
8.77323e-07
8.77658e-07
8.78011e-07
8.78388e-07
8.78789e-07
8.79216e-07
8.79673e-07
8.80164e-07
8.80692e-07
8.8126e-07
8.81868e-07
8.82517e-07
8.83211e-07
8.83956e-07
8.84756e-07
8.85624e-07
8.86564e-07
8.87575e-07
8.88654e-07
8.89796e-07
8.90993e-07
8.92231e-07
8.93492e-07
8.94755e-07
8.96002e-07
8.97221e-07
8.98403e-07
8.99552e-07
9.00677e-07
9.01798e-07
9.02934e-07
9.04104e-07
9.05325e-07
9.06616e-07
9.08e-07
9.09502e-07
9.11151e-07
9.12984e-07
9.15035e-07
9.17341e-07
9.1994e-07
9.2286e-07
9.26125e-07
9.29785e-07
9.33989e-07
9.38586e-07
9.42898e-07
9.46235e-07
9.57058e-07
1.00731e-06
1.00868e-06
1.01743e-06
1.07873e-06
1.11205e-06
1.18166e-06
1.23588e-06
1.26648e-06
1.28182e-06
1.27071e-06
8.86295e-07
8.75109e-07
8.74174e-07
8.73706e-07
8.73419e-07
8.73213e-07
8.73058e-07
8.72944e-07
8.72864e-07
8.72812e-07
8.72781e-07
8.72769e-07
8.72776e-07
8.72805e-07
8.72855e-07
8.72928e-07
8.73026e-07
8.73146e-07
8.73286e-07
8.73446e-07
8.73624e-07
8.73822e-07
8.74041e-07
8.74279e-07
8.74538e-07
8.74817e-07
8.75115e-07
8.75433e-07
8.75774e-07
8.76137e-07
8.76522e-07
8.76933e-07
8.77372e-07
8.77843e-07
8.7835e-07
8.78896e-07
8.79483e-07
8.80113e-07
8.80785e-07
8.81504e-07
8.82276e-07
8.83106e-07
8.84006e-07
8.8498e-07
8.86027e-07
8.87144e-07
8.88327e-07
8.89567e-07
8.90851e-07
8.92158e-07
8.93469e-07
8.94764e-07
8.96031e-07
8.97263e-07
8.98462e-07
8.99638e-07
9.00812e-07
9.02005e-07
9.03237e-07
9.04525e-07
9.0589e-07
9.07353e-07
9.08941e-07
9.10684e-07
9.12619e-07
9.14783e-07
9.17216e-07
9.19957e-07
9.2304e-07
9.26489e-07
9.3036e-07
9.34832e-07
9.39469e-07
9.43892e-07
9.47098e-07
9.59736e-07
1.01596e-06
1.01086e-06
1.02043e-06
1.07725e-06
1.10681e-06
1.17374e-06
1.2173e-06
1.24164e-06
1.25089e-06
1.23921e-06
8.84583e-07
8.73404e-07
8.72433e-07
8.71942e-07
8.71635e-07
8.71412e-07
8.71242e-07
8.71112e-07
8.71018e-07
8.70952e-07
8.70909e-07
8.70888e-07
8.70884e-07
8.70902e-07
8.70943e-07
8.71009e-07
8.71099e-07
8.71213e-07
8.71348e-07
8.71505e-07
8.71681e-07
8.71877e-07
8.72094e-07
8.72332e-07
8.72592e-07
8.72874e-07
8.73176e-07
8.735e-07
8.73847e-07
8.74218e-07
8.74612e-07
8.75034e-07
8.75486e-07
8.75972e-07
8.76494e-07
8.77059e-07
8.77668e-07
8.78319e-07
8.79016e-07
8.79763e-07
8.80565e-07
8.81426e-07
8.8236e-07
8.83371e-07
8.84457e-07
8.85616e-07
8.86843e-07
8.88129e-07
8.8946e-07
8.90819e-07
8.92182e-07
8.9353e-07
8.94851e-07
8.96136e-07
8.97389e-07
8.98622e-07
8.99854e-07
9.0111e-07
9.02409e-07
9.0377e-07
9.05214e-07
9.06763e-07
9.08443e-07
9.10287e-07
9.12333e-07
9.1462e-07
9.17189e-07
9.20082e-07
9.23339e-07
9.26988e-07
9.31084e-07
9.35823e-07
9.40493e-07
9.45034e-07
9.48121e-07
9.63031e-07
1.0216e-06
1.01215e-06
1.0235e-06
1.07436e-06
1.10139e-06
1.16587e-06
1.1994e-06
1.21785e-06
1.22273e-06
1.21121e-06
8.82616e-07
8.71468e-07
8.70462e-07
8.69955e-07
8.69638e-07
8.69406e-07
8.69229e-07
8.69093e-07
8.68993e-07
8.68922e-07
8.68874e-07
8.68848e-07
8.68841e-07
8.68857e-07
8.68897e-07
8.68962e-07
8.69051e-07
8.69165e-07
8.69302e-07
8.6946e-07
8.69639e-07
8.69839e-07
8.70061e-07
8.70306e-07
8.70572e-07
8.7086e-07
8.71171e-07
8.71505e-07
8.71863e-07
8.72246e-07
8.72654e-07
8.73091e-07
8.73562e-07
8.74066e-07
8.7461e-07
8.75196e-07
8.75829e-07
8.76507e-07
8.77234e-07
8.78012e-07
8.78846e-07
8.79744e-07
8.80715e-07
8.81765e-07
8.82894e-07
8.84097e-07
8.85372e-07
8.86708e-07
8.88091e-07
8.89503e-07
8.9092e-07
8.92325e-07
8.93703e-07
8.95045e-07
8.96357e-07
8.97648e-07
8.98943e-07
9.00264e-07
9.01635e-07
9.03074e-07
9.046e-07
9.0624e-07
9.0802e-07
9.09972e-07
9.12136e-07
9.14553e-07
9.17267e-07
9.20326e-07
9.2377e-07
9.27634e-07
9.31975e-07
9.36956e-07
9.41673e-07
9.46313e-07
9.49338e-07
9.66043e-07
1.0297e-06
1.01388e-06
1.02625e-06
1.07016e-06
1.09631e-06
1.15833e-06
1.18299e-06
1.19615e-06
1.1979e-06
1.18727e-06
8.80464e-07
8.69314e-07
8.68287e-07
8.67771e-07
8.67451e-07
8.67219e-07
8.67042e-07
8.66906e-07
8.66808e-07
8.66739e-07
8.66693e-07
8.6667e-07
8.66667e-07
8.66687e-07
8.66731e-07
8.668e-07
8.66895e-07
8.67016e-07
8.67161e-07
8.67326e-07
8.67513e-07
8.67722e-07
8.67954e-07
8.68209e-07
8.68487e-07
8.68788e-07
8.69113e-07
8.69461e-07
8.69834e-07
8.70234e-07
8.70661e-07
8.71118e-07
8.71609e-07
8.72137e-07
8.72705e-07
8.73317e-07
8.73978e-07
8.74687e-07
8.75446e-07
8.76259e-07
8.7713e-07
8.78066e-07
8.79078e-07
8.80172e-07
8.81345e-07
8.82596e-07
8.8392e-07
8.85308e-07
8.86745e-07
8.88213e-07
8.89688e-07
8.91151e-07
8.92588e-07
8.93991e-07
8.95362e-07
8.96716e-07
8.98076e-07
8.99467e-07
9.00912e-07
9.02433e-07
9.04048e-07
9.05784e-07
9.07669e-07
9.09737e-07
9.12027e-07
9.14585e-07
9.17457e-07
9.20692e-07
9.2434e-07
9.28436e-07
9.3305e-07
9.38245e-07
9.43002e-07
9.47734e-07
9.50753e-07
9.69969e-07
1.03473e-06
1.01448e-06
1.02849e-06
1.06536e-06
1.0919e-06
1.151e-06
1.16802e-06
1.17671e-06
1.17649e-06
1.16711e-06
8.78238e-07
8.67064e-07
8.66017e-07
8.65494e-07
8.65173e-07
8.64943e-07
8.6477e-07
8.64637e-07
8.64543e-07
8.64479e-07
8.64438e-07
8.64421e-07
8.64424e-07
8.64451e-07
8.64502e-07
8.64579e-07
8.64684e-07
8.64814e-07
8.64968e-07
8.65144e-07
8.65343e-07
8.65563e-07
8.65807e-07
8.66076e-07
8.66368e-07
8.66683e-07
8.67024e-07
8.67391e-07
8.67782e-07
8.68201e-07
8.68649e-07
8.69128e-07
8.69643e-07
8.70196e-07
8.70791e-07
8.71432e-07
8.72123e-07
8.72866e-07
8.73661e-07
8.7451e-07
8.75419e-07
8.76396e-07
8.77451e-07
8.78589e-07
8.79809e-07
8.8111e-07
8.82485e-07
8.83927e-07
8.8542e-07
8.86945e-07
8.8848e-07
8.90003e-07
8.91502e-07
8.92967e-07
8.94402e-07
8.95821e-07
8.9725e-07
8.98714e-07
9.00239e-07
9.01845e-07
9.03555e-07
9.05395e-07
9.07393e-07
9.09584e-07
9.12011e-07
9.14721e-07
9.17763e-07
9.21193e-07
9.25061e-07
9.29408e-07
9.34325e-07
9.39711e-07
9.44495e-07
9.49337e-07
9.52468e-07
9.73685e-07
1.03727e-06
1.01507e-06
1.03064e-06
1.06083e-06
1.08849e-06
1.14366e-06
1.15396e-06
1.15932e-06
1.15838e-06
1.15034e-06
8.7607e-07
8.64791e-07
8.63731e-07
8.63201e-07
8.62879e-07
8.62652e-07
8.62481e-07
8.62354e-07
8.62265e-07
8.62205e-07
8.6217e-07
8.62158e-07
8.62167e-07
8.622e-07
8.62259e-07
8.62345e-07
8.62459e-07
8.62599e-07
8.62763e-07
8.6295e-07
8.63159e-07
8.63392e-07
8.6365e-07
8.63932e-07
8.64239e-07
8.64571e-07
8.64928e-07
8.65313e-07
8.65723e-07
8.66163e-07
8.66633e-07
8.67136e-07
8.67675e-07
8.68255e-07
8.68878e-07
8.6955e-07
8.70273e-07
8.7105e-07
8.71881e-07
8.72768e-07
8.73718e-07
8.74737e-07
8.75836e-07
8.7702e-07
8.78288e-07
8.7964e-07
8.81068e-07
8.82565e-07
8.84115e-07
8.857e-07
8.87296e-07
8.88883e-07
8.90445e-07
8.91976e-07
8.93478e-07
8.94967e-07
8.96468e-07
8.98009e-07
8.99618e-07
9.01317e-07
9.03127e-07
9.05078e-07
9.07197e-07
9.09523e-07
9.12099e-07
9.14974e-07
9.18202e-07
9.2184e-07
9.25947e-07
9.30566e-07
9.35827e-07
9.41382e-07
9.46182e-07
9.51147e-07
9.54465e-07
9.77873e-07
1.0382e-06
1.01567e-06
1.03265e-06
1.05699e-06
1.08623e-06
1.13638e-06
1.14087e-06
1.14393e-06
1.14315e-06
1.13655e-06
8.7392e-07
8.6254e-07
8.61462e-07
8.60922e-07
8.606e-07
8.60373e-07
8.60204e-07
8.6008e-07
8.59995e-07
8.5994e-07
8.5991e-07
8.59903e-07
8.59918e-07
8.59957e-07
8.60024e-07
8.60117e-07
8.60239e-07
8.60389e-07
8.60563e-07
8.6076e-07
8.6098e-07
8.61226e-07
8.61497e-07
8.61793e-07
8.62115e-07
8.62462e-07
8.62838e-07
8.6324e-07
8.6367e-07
8.64131e-07
8.64624e-07
8.65151e-07
8.65717e-07
8.66324e-07
8.66976e-07
8.67679e-07
8.68437e-07
8.69249e-07
8.70116e-07
8.71043e-07
8.72035e-07
8.73097e-07
8.7424e-07
8.75472e-07
8.7679e-07
8.78193e-07
8.79675e-07
8.81228e-07
8.82837e-07
8.84484e-07
8.86144e-07
8.87796e-07
8.89425e-07
8.91025e-07
8.92598e-07
8.9416e-07
8.95737e-07
8.9736e-07
8.99059e-07
9.00856e-07
9.02776e-07
9.04845e-07
9.07096e-07
9.09566e-07
9.12303e-07
9.15357e-07
9.18786e-07
9.22652e-07
9.2702e-07
9.31934e-07
9.37555e-07
9.4327e-07
9.48089e-07
9.53196e-07
9.56767e-07
9.82007e-07
1.03762e-06
1.01622e-06
1.03448e-06
1.05398e-06
1.08506e-06
1.1294e-06
1.12898e-06
1.13035e-06
1.13035e-06
1.12532e-06
8.71828e-07
8.60297e-07
8.59208e-07
8.58658e-07
8.58335e-07
8.58109e-07
8.57941e-07
8.5782e-07
8.57738e-07
8.57687e-07
8.57661e-07
8.57659e-07
8.5768e-07
8.57725e-07
8.57798e-07
8.57899e-07
8.5803e-07
8.58188e-07
8.58371e-07
8.58579e-07
8.58812e-07
8.59069e-07
8.59354e-07
8.59664e-07
8.60001e-07
8.60365e-07
8.60759e-07
8.6118e-07
8.61631e-07
8.62114e-07
8.62631e-07
8.63183e-07
8.63775e-07
8.6441e-07
8.65093e-07
8.65829e-07
8.6662e-07
8.67468e-07
8.68374e-07
8.69342e-07
8.70376e-07
8.71483e-07
8.72673e-07
8.73953e-07
8.75322e-07
8.76777e-07
8.78314e-07
8.79925e-07
8.81595e-07
8.83304e-07
8.85031e-07
8.86751e-07
8.88451e-07
8.90122e-07
8.9177e-07
8.9341e-07
8.95069e-07
8.96779e-07
8.98573e-07
9.00475e-07
9.02511e-07
9.04709e-07
9.071e-07
9.09727e-07
9.12637e-07
9.15886e-07
9.19534e-07
9.23647e-07
9.28297e-07
9.33534e-07
9.39511e-07
9.45352e-07
9.50245e-07
9.55526e-07
9.59296e-07
9.86123e-07
1.0363e-06
1.01676e-06
1.03598e-06
1.05177e-06
1.08486e-06
1.12299e-06
1.11849e-06
1.11844e-06
1.11953e-06
1.11595e-06
8.69755e-07
8.58054e-07
8.56964e-07
8.56402e-07
8.56078e-07
8.55852e-07
8.55687e-07
8.55569e-07
8.55491e-07
8.55444e-07
8.55423e-07
8.55426e-07
8.55452e-07
8.55504e-07
8.55583e-07
8.55692e-07
8.55831e-07
8.55999e-07
8.56193e-07
8.56412e-07
8.56656e-07
8.56926e-07
8.57225e-07
8.5755e-07
8.57903e-07
8.58285e-07
8.58697e-07
8.59138e-07
8.59611e-07
8.60117e-07
8.60658e-07
8.61237e-07
8.61857e-07
8.62522e-07
8.63236e-07
8.64005e-07
8.64832e-07
8.65718e-07
8.66663e-07
8.67672e-07
8.6875e-07
8.69903e-07
8.7114e-07
8.72469e-07
8.73889e-07
8.75398e-07
8.76992e-07
8.78662e-07
8.80394e-07
8.82169e-07
8.83963e-07
8.85755e-07
8.87528e-07
8.89276e-07
8.91002e-07
8.92724e-07
8.94469e-07
8.96273e-07
8.98168e-07
9.00183e-07
9.02343e-07
9.04678e-07
9.07222e-07
9.10018e-07
9.13116e-07
9.16576e-07
9.20461e-07
9.24842e-07
9.29798e-07
9.35392e-07
9.41708e-07
9.47626e-07
9.52642e-07
9.58123e-07
9.61952e-07
9.90166e-07
1.03445e-06
1.01756e-06
1.03712e-06
1.05016e-06
1.0854e-06
1.11713e-06
1.1094e-06
1.10807e-06
1.11042e-06
1.10794e-06
8.6773e-07
8.55805e-07
8.54729e-07
8.54157e-07
8.53831e-07
8.53605e-07
8.53442e-07
8.53329e-07
8.53254e-07
8.53212e-07
8.53196e-07
8.53204e-07
8.53236e-07
8.53295e-07
8.53381e-07
8.53499e-07
8.53648e-07
8.53825e-07
8.5403e-07
8.54262e-07
8.54519e-07
8.54803e-07
8.55116e-07
8.55457e-07
8.55828e-07
8.56228e-07
8.56659e-07
8.57121e-07
8.57617e-07
8.58148e-07
8.58714e-07
8.5932e-07
8.59969e-07
8.60665e-07
8.61412e-07
8.62215e-07
8.63079e-07
8.64003e-07
8.64989e-07
8.66041e-07
8.67163e-07
8.68362e-07
8.69647e-07
8.71027e-07
8.725e-07
8.74064e-07
8.75715e-07
8.77446e-07
8.79241e-07
8.81083e-07
8.82947e-07
8.84812e-07
8.86662e-07
8.88491e-07
8.90299e-07
8.92108e-07
8.93946e-07
8.95849e-07