/*--------------------------------*- C++ -*----------------------------------*\
  =========                 |
  \\      /  F ield         | OpenFOAM: The Open Source CFD Toolbox
   \\    /   O peration     | Website:  https://openfoam.org
    \\  /    A nd           | Version:  9
     \\/     M anipulation  |
\*---------------------------------------------------------------------------*/
FoamFile
{
    format      ascii;
    class       volScalarField;
    location    "1500";
    object      omega;
}
// * * * * * * * * * * * * * * * * * * * * * * * * * * * * * * * * * * * * * //

dimensions      [0 0 -1 0 0 0 0];

internalField   nonuniform List<scalar> 
13617
(
12.2556
19.1717
19.976
20.801
21.648
22.5161
23.4056
24.3166
25.2476
26.1966
27.164
28.1492
29.1504
30.1669
31.1972
32.2394
33.2942
34.3584
35.4308
36.51
37.5942
38.6822
39.7724
40.8626
41.9521
43.0379
44.1197
45.1962
46.265
47.3253
48.3761
49.4155
50.4416
51.4546
52.454
53.4377
54.4057
55.3569
56.292
57.2096
58.1092
58.9923
59.8575
60.7047
61.5355
62.349
63.1459
63.9275
64.6932
65.4443
66.1802
66.9033
67.6148
68.3122
68.9987
69.6781
70.3477
71.0075
71.6604
72.3077
72.9525
73.5939
74.2308
74.8676
75.5068
76.1493
76.796
77.4471
78.1062
78.7749
79.454
80.1467
80.8545
81.58
82.3197
83.0713
83.8402
84.6402
85.6712
86.8255
87.8449
89.2311
92.0855
95.3884
96.7319
96.6418
12.8858
20.0535
20.8754
21.7128
22.5706
23.4483
24.3454
25.2605
26.1929
27.1427
28.1081
29.0882
30.0819
31.0876
32.1042
33.1292
34.1627
35.2031
36.2482
37.2966
38.3472
39.3982
40.4477
41.4944
42.5364
43.5733
44.6027
45.624
46.6355
47.6356
48.6236
49.599
50.56
51.5056
52.4358
53.3502
54.2482
55.1298
55.9935
56.8403
57.6701
58.483
59.2782
60.0567
60.8211
61.5687
62.301
63.0198
63.7252
64.4182
65.0993
65.7693
66.4288
67.0802
67.7242
68.3613
68.9918
69.6175
70.2397
70.8601
71.4795
72.0991
72.7205
73.3455
73.9752
74.6099
75.2521
75.9044
76.5677
77.2428
77.9324
78.6366
79.3592
80.1017
80.8585
81.6318
82.4263
83.2733
84.5005
85.6083
86.4092
87.7565
90.9694
94.2399
95.2556
95.2477
14.348
21.1368
21.9731
22.8196
23.6845
24.567
25.4659
26.3812
27.3115
28.2542
29.2107
30.1782
31.1552
32.1418
33.136
34.1358
35.1399
36.1468
37.1555
38.1647
39.172
40.1769
41.1771
42.1708
43.158
44.1371
45.1061
46.0642
47.0106
47.9437
48.863
49.7675
50.6569
51.5302
52.3877
53.2285
54.0524
54.8599
55.6502
56.4238
57.181
57.9214
58.6468
59.3568
60.0528
60.7354
61.4037
62.0593
62.7049
63.34
63.9653
64.5827
65.1925
65.7968
66.3968
66.9928
67.5861
68.1772
68.7681
69.3606
69.9544
70.5525
71.1555
71.7637
72.3806
73.0065
73.6424
74.2902
74.9516
75.6282
76.3205
77.0292
77.758
78.5083
79.2746
80.0555
80.8601
81.7393
83.1162
84.1419
84.8306
86.1559
89.2797
92.0862
92.9532
93.1557
16.1544
22.3638
23.2122
24.0638
24.9313
25.8133
26.7095
27.6186
28.5384
29.4699
30.4101
31.3581
32.3134
33.2735
34.2373
35.2029
36.1708
37.1385
38.1038
39.0656
40.0231
40.9743
41.918
42.8533
43.7786
44.6936
45.5963
46.4862
47.3624
48.2247
49.0718
49.9022
50.7179
51.5174
52.2991
53.0648
53.8143
54.5468
55.2635
55.9638
56.6483
57.3189
57.9751
58.6175
59.2472
59.8641
60.4711
61.0684
61.6563
62.2358
62.8086
63.3764
63.9394
64.4973
65.0542
65.6113
66.1675
66.7254
67.2864
67.8508
68.4207
68.9968
69.5792
70.1716
70.7753
71.3897
72.0166
72.6573
73.3142
73.9873
74.6761
75.3842
76.1132
76.863
77.6296
78.4115
79.2159
80.1295
81.7096
82.4576
83.0559
84.4379
87.302
89.5697
90.3626
90.7266
18.226
23.7432
24.594
25.4451
26.3088
27.185
28.0711
28.9672
29.8712
30.7813
31.6978
32.6192
33.5428
34.468
35.3947
36.3201
37.2423
38.1604
39.0741
39.9819
40.8817
41.7727
42.6536
43.5232
44.3812
45.2261
46.0577
46.8755
47.6782
48.4652
49.2358
49.9907
50.7301
51.4526
52.1588
52.8488
53.5229
54.1809
54.8241
55.4527
56.0666
56.6679
57.2567
57.8339
58.4001
58.9555
59.503
60.0423
60.5753
61.103
61.6255
62.1446
62.6622
63.1792
63.6973
64.2161
64.7376
65.2643
65.7958
66.3327
66.8784
67.4324
67.9951
68.5698
69.1578
69.7582
70.3739
71.0039
71.6505
72.3161
72.9984
73.6994
74.4202
75.1629
75.9221
76.6951
77.4865
78.4672
80.151
80.5993
81.1804
82.6512
85.3036
87.027
87.6199
87.915
20.5453
25.2795
26.1277
26.9715
27.8245
28.6854
29.5535
30.4276
31.3066
32.1882
33.0718
33.9564
34.8399
35.7219
36.6007
37.4741
38.3427
39.2047
40.0586
40.9028
41.7367
42.5594
43.3702
44.1686
44.9531
45.7232
46.4785
47.2191
47.9438
48.6526
49.3446
50.0209
50.6823
51.3272
51.9564
52.57
53.1682
53.7529
54.3242
54.8815
55.426
55.9601
56.4832
56.9961
57.501
57.9979
58.4879
58.9725
59.4531
59.9306
60.4069
60.8812
61.3561
61.8339
62.3137
62.7967
63.2858
63.7816
64.2845
64.7959
65.3174
65.8483
66.3913
66.9479
67.5187
68.1036
68.7047
69.3208
69.9547
70.607
71.2766
71.9649
72.6731
73.4025
74.1456
74.9013
75.6734
76.7304
78.2602
78.6041
79.2805
80.8398
83.3114
84.5753
84.8819
84.9628
23.1083
26.9797
27.8178
28.6457
29.4789
30.3163
31.1574
32.0006
32.843
33.6846
34.5256
35.3631
36.1958
37.0229
37.8451
38.658
39.4619
40.2571
41.0416
41.8142
42.5749
43.3222
44.0559
44.7758
45.4806
46.1705
46.8448
47.5035
48.1462
48.7731
49.3847
49.9812
50.5624
51.1287
51.6801
52.2176
52.7418
53.2531
53.7526
54.24
54.7173
55.1859
55.646
56.0984
56.5437
56.984
57.4205
57.8535
58.2839
58.7141
59.1452
59.5775
60.0134
60.4523
60.896
61.3466
61.8047
62.2704
62.7455
63.2317
63.7292
64.2378
64.761
65.298
65.8505
66.4174
67.0011
67.6016
68.2194
68.8558
69.509
70.1811
70.8726
71.5818
72.3038
73.0394
73.7908
74.9054
76.1297
76.5318
77.3516
78.9588
81.1686
82.0539
82.1405
81.8675
25.9783
28.8689
29.6873
30.4886
31.2907
32.0931
32.8939
33.6921
34.4862
35.2759
36.0603
36.8374
37.6077
38.37
39.1211
39.8612
40.5914
41.3095
42.0143
42.7062
43.3846
44.0476
44.697
45.3318
45.9507
46.5543
47.1427
47.7166
48.2749
48.8176
49.3461
49.8605
50.3611
50.8481
51.322
51.7839
52.2341
52.6737
53.1028
53.5229
53.9355
54.3411
54.7393
55.1327
55.5222
55.9084
56.2932
56.6778
57.0621
57.4481
57.8367
58.2288
58.6269
59.0306
59.4405
59.8597
60.2885
60.7263
61.1754
61.6366
62.1104
62.597
63.099
63.6167
64.1503
64.6985
65.2651
65.8471
66.447
67.0649
67.6994
68.3523
69.0218
69.7073
70.4066
71.1186
71.8525
73.0112
73.9499
74.4298
75.366
76.8999
78.8886
79.4518
79.4781
79.0312
29.3327
31.0525
31.8284
32.5813
33.3304
34.0756
34.8156
35.5497
36.2767
36.9946
37.7044
38.4043
39.0925
39.77
40.4374
41.0912
41.732
42.3601
42.9742
43.5733
44.1591
44.73
45.286
45.8283
46.3554
46.8675
47.3654
47.8499
48.3194
48.7753
49.2195
49.6509
50.0695
50.4773
50.8743
51.261
51.6387
52.008
52.3692
52.7236
53.073
53.4178
53.7584
54.0963
54.4324
54.7678
55.104
55.4425
55.783
56.1274
56.4769
56.8317
57.1939
57.5648
57.9439
58.3335
58.7343
59.1459
59.5702
60.0079
60.4598
60.9256
61.4069
61.9038
62.4177
62.9478
63.4948
64.0585
64.6395
65.238
65.8535
66.4847
67.1322
67.7958
68.4706
69.1566
69.8795
71.1005
71.7917
72.308
73.3255
74.7001
76.5718
76.7763
76.7944
76.3202
33.5238
33.6819
34.3731
35.0412
35.7028
36.3574
37.0041
37.6425
38.2705
38.8881
39.4965
40.0928
40.6768
41.2497
41.8105
42.3581
42.8932
43.4144
43.9221
44.4169
44.8975
45.3643
45.8181
46.2587
46.6863
47.1009
47.5032
47.8939
48.2727
48.6402
48.9975
49.3446
49.6816
50.0098
50.3295
50.6424
50.9489
51.2492
51.5453
51.8369
52.1253
52.4122
52.6974
52.9832
53.2698
53.5578
53.8492
54.1439
54.4435
54.7499
55.063
55.3836
55.7139
56.0546
56.4051
56.7669
57.1414
57.5293
57.9312
58.3471
58.7775
59.224
59.6859
60.1638
60.6601
61.1717
61.7003
62.2472
62.8105
63.3911
63.9886
64.6007
65.2285
65.8701
66.5232
67.1876
67.9163
69.2399
69.6847
70.2135
71.3049
72.4762
74.2781
74.2461
74.1251
73.6706
38.6748
36.8224
37.376
37.9124
38.4397
38.9593
39.4706
39.9754
40.4713
40.9553
41.43
41.8943
42.3473
42.7904
43.2226
43.6428
44.0524
44.4507
44.8378
45.213
45.5774
45.9314
46.2745
46.6067
46.9285
47.2407
47.5434
47.8372
48.1229
48.4
48.6695
48.9325
49.1889
49.4391
49.6839
49.9249
50.1629
50.3983
50.6315
50.8636
51.0947
51.3264
51.5603
51.7972
52.0377
52.2821
52.5322
52.7887
53.0514
53.3229
53.6036
53.8939
54.1955
54.5088
54.8345
55.1728
55.5246
55.8914
56.2731
56.6704
57.0833
57.5124
57.9582
58.4206
58.9018
59.3995
59.9144
60.447
60.9963
61.563
62.1452
62.7428
63.355
63.9798
64.616
65.2617
66.0274
67.4047
67.6538
68.2128
69.3509
70.4159
72.0655
71.7503
71.5509
71.0239
44.3692
40.2568
40.6243
40.9853
41.3416
41.6922
42.0382
42.378
42.7097
43.0359
43.3561
43.6671
43.9706
44.2679
44.5577
44.8391
45.1129
45.379
45.6371
45.888
46.1315
46.3679
46.5973
46.8199
47.0363
47.2467
47.451
47.6501
47.8442
48.0336
48.2199
48.4023
48.5814
48.7585
48.9341
49.1085
49.283
49.4576
49.633
49.8106
49.9907
50.1742
50.3626
50.5568
50.7562
50.962
51.1761
51.399
51.6309
51.8727
52.126
52.3917
52.6693
52.9602
53.2658
53.5855
53.9198
54.2708
54.6376
55.0212
55.4217
55.8383
56.273
56.7255
57.196
57.6847
58.1913
58.7155
59.2563
59.8142
60.387
60.9741
61.5743
62.1863
62.8084
63.4405
64.2606
65.5182
65.7047
66.3486
67.5173
68.4849
69.7958
69.2886
69.0583
68.396
49.5969
43.462
43.6244
43.8005
43.9741
44.1477
44.3202
44.4906
44.6586
44.824
44.9875
45.1476
45.304
45.4578
45.6095
45.7569
45.9005
46.0409
46.1781
46.3123
46.4435
46.5712
46.6961
46.8186
46.9386
47.0563
47.1721
47.287
47.4005
47.5129
47.625
47.7369
47.8493
47.9632
48.0786
48.1959
48.3164
48.44
48.5674
48.6995
48.8372
48.9811
49.1321
49.291
49.4577
49.6339
49.82
50.0168
50.2252
50.4449
50.6779
50.9247
51.1859
51.4623
51.7544
52.062
52.3855
52.7265
53.0847
53.461
53.8546
54.2659
54.6958
55.1438
55.6105
56.0947
56.5966
57.1157
57.6512
58.2039
58.7707
59.349
59.9397
60.5402
61.1476
61.7643
62.6332
63.6735
63.8788
64.6475
65.6669
66.5533
67.4649
66.8903
66.6426
65.9012
53.3111
45.8212
45.8017
45.8182
45.8378
45.8606
45.8856
45.9137
45.9435
45.9747
46.0085
46.0433
46.0778
46.1142
46.152
46.1902
46.2298
46.269
46.3086
46.3493
46.3906
46.4323
46.4744
46.518
46.5629
46.6085
46.6553
46.704
46.7555
46.8087
46.8643
46.9234
46.9856
47.0514
47.1215
47.1964
47.2764
47.3629
47.4558
47.5547
47.6619
47.7777
47.9024
48.0374
48.1827
48.3387
48.5064
48.6865
48.8797
49.0863
49.3085
49.5457
49.7983
50.0671
50.3522
50.6547
50.9743
51.3124
51.6686
52.0425
52.4342
52.8451
53.2742
53.7211
54.186
54.6685
55.1684
55.6845
56.2149
56.7606
57.3187
57.8865
58.4631
59.0451
59.632
60.2294
61.1328
61.9531
62.1723
62.9778
63.8036
64.6176
65.1526
64.5486
64.2611
63.4799
54.9651
46.9531
46.803
46.7114
46.625
46.5456
46.4721
46.4045
46.342
46.284
46.2316
46.1833
46.1373
46.0957
46.0593
46.0261
45.9955
45.9683
45.9448
45.925
45.9078
45.8932
45.8826
45.8757
45.8723
45.8719
45.8754
45.8831
45.8951
45.9109
45.9315
45.9576
45.9887
46.0259
46.0689
46.1187
46.1758
46.2403
46.313
46.3945
46.4852
46.5855
46.6969
46.82
46.9541
47.1008
47.2607
47.4343
47.6222
47.8249
48.0435
48.2779
48.5295
48.798
49.0832
49.3857
49.7064
50.0455
50.4024
50.7782
51.1715
51.5828
52.0111
52.4568
52.92
53.3986
53.8925
54.4018
54.923
55.4559
55.9986
56.5489
57.104
57.6601
58.2174
58.7891
59.711
60.3333
60.519
61.3585
61.9719
62.6583
62.8705
62.253
61.9096
61.1298
54.7316
46.8637
46.6421
46.4964
46.3572
46.2274
46.1056
45.9898
45.8814
45.7794
45.684
45.5952
45.5106
45.4319
45.3586
45.2907
45.2276
45.1685
45.1151
45.0664
45.0217
44.9818
44.9465
44.9159
44.8902
44.8696
44.8537
44.843
44.8375
44.8373
44.8435
44.8557
44.8741
44.9
44.9332
44.9734
45.0221
45.0797
45.1459
45.222
45.3086
45.4059
45.5145
45.6356
45.769
45.916
46.0767
46.2515
46.4414
46.6467
46.8681
47.1058
47.3608
47.6327
47.9211
48.2268
48.5509
48.8927
49.2512
49.6279
50.0215
50.4314
50.8574
51.2989
51.7555
52.2259
52.7092
53.2044
53.7089
54.2227
54.7438
55.2681
55.7933
56.3167
56.8375
57.3783
58.3065
58.7454
58.877
59.6931
60.1068
60.6605
60.6293
59.9951
59.5872
58.8486
53.22
45.876
45.6253
45.4652
45.3131
45.1706
45.0357
44.9082
44.789
44.6774
44.5721
44.4732
44.3801
44.2933
44.2125
44.1366
44.0666
44.0015
43.9418
43.8874
43.8378
43.7933
43.7538
43.7199
43.6912
43.6675
43.6494
43.6368
43.6302
43.6295
43.6353
43.6474
43.6662
43.693
43.728
43.7704
43.8213
43.8818
43.9517
44.0309
44.1212
44.2234
44.3372
44.4628
44.602
44.7548
44.921
45.1018
45.2977
45.5095
45.7369
45.9802
46.2406
46.5176
46.8105
47.12
47.4463
47.7893
48.1484
48.5235
48.9137
49.3189
49.7385
50.172
50.6173
51.074
51.5418
52.0178
52.5007
52.9904
53.4839
53.9772
54.4689
54.955
55.4343
55.9453
56.8678
57.1448
57.2187
57.9769
58.2162
58.658
58.4456
57.7956
57.3271
56.6497
51.1658
44.4125
44.1573
44.0029
43.8584
43.7227
43.5942
43.4743
43.3618
43.2562
43.1579
43.0652
42.9783
42.8985
42.8243
42.7547
42.6909
42.6326
42.5792
42.5308
42.4876
42.4494
42.416
42.388
42.3658
42.3481
42.3366
42.3308
42.3303
42.3358
42.3482
42.3675
42.3935
42.4269
42.4685
42.5187
42.5771
42.6448
42.7223
42.8094
42.9081
43.0185
43.1401
43.2741
43.4212
43.5814
43.7552
43.9439
44.1472
44.3657
44.5997
44.8484
45.1138
45.3949
45.6911
46.0028
46.3296
46.672
47.0292
47.4005
47.7852
48.183
48.5932
49.0149
49.4464
49.8864
50.3342
50.7891
51.2486
51.712
52.1766
52.6379
53.0954
53.5452
53.9833
54.469
55.3823
55.5046
55.5277
56.1949
56.2813
56.6558
56.3074
55.6505
55.1423
54.5308
49.0476
42.8116
42.5594
42.4171
42.2847
42.1613
42.0449
41.9361
41.8348
41.7399
41.652
41.5703
41.4937
41.4232
41.3582
41.2986
41.2443
41.195
41.1506
41.111
41.0764
41.0467
41.0218
41.0019
40.9877
40.9788
40.9749
40.9769
40.9847
40.9982
41.0185
41.046
41.0801
41.1215
41.1711
41.2293
41.2958
41.3715
41.4574
41.5533
41.66
41.778
41.9077
42.0498
42.2049
42.3731
42.5544
42.7502
42.96
43.1841
43.4237
43.6777
43.9466
44.2301
44.528
44.8401
45.1669
45.5073
45.8607
46.2271
46.6044
46.9929
47.3928
47.8012
48.2175
48.6407
49.0696
49.5031
49.9388
50.3758
50.8119
51.2435
51.6686
52.0834
52.4833
52.9515
53.8401
53.8283
53.8473
54.3887
54.3576
54.6827
54.2252
53.5667
53.0438
52.4911
47.0975
41.2516
40.9989
40.8663
40.7442
40.6299
40.5226
40.423
40.3308
40.2449
40.1649
40.0909
40.0226
39.9603
39.9027
39.85
39.8031
39.7606
39.7231
39.6901
39.6618
39.6387
39.6205
39.6073
39.5995
39.5971
39.5996
39.6075
39.6216
39.6421
39.669
39.7026
39.7431
39.7914
39.8476
39.9127
39.9865
40.0696
40.162
40.265
40.379
40.5042
40.6412
40.7902
40.9519
41.1266
41.3141
41.5159
41.7316
41.9608
42.2044
42.462
42.7333
43.0184
43.3174
43.6295
43.9546
44.2919
44.6408
45.0011
45.3715
45.7512
46.1399
46.5358
46.9373
47.3439
47.7547
48.1678
48.5815
48.9945
49.404
49.8076
50.2029
50.5855
50.9491
51.4033
52.2775
52.1227
52.1153
52.535
52.4562
52.7331
52.1941
51.5557
51.0513
50.55
45.3105
39.7673
39.5122
39.3853
39.2688
39.1605
39.059
38.9646
38.8775
38.7964
38.7216
38.6528
38.589
38.5307
38.4772
38.4289
38.3863
38.3477
38.3139
38.2854
38.2614
38.2423
38.2282
38.2188
38.2148
38.2165
38.2235
38.2358
38.2546
38.2799
38.3115
38.3497
38.3952
38.4485
38.5101
38.5808
38.6603
38.7489
38.8472
38.9564
39.0765
39.2077
39.3504
39.5054
39.6732
39.8533
40.0463
40.2527
40.4727
40.7065
40.9535
41.2136
41.4875
41.7739
42.0731
42.3844
42.7073
43.0414
43.3859
43.7405
44.1037
44.4745
44.852
45.2352
45.6229
46.014
46.4074
46.8011
47.194
47.5842
47.969
48.3464
48.7131
49.0663
49.3966
49.844
50.6664
50.4095
50.3974
50.6946
50.6065
50.8229
50.2227
49.6234
49.1603
48.7073
43.627
38.3352
38.0727
37.9486
37.8358
37.7307
37.6328
37.5417
37.4574
37.3794
37.3071
37.2405
37.1794
37.1237
37.0731
37.0273
36.9864
36.9502
36.919
36.8928
36.8715
36.8553
36.8438
36.8372
36.836
36.8403
36.8506
36.8664
36.8884
36.9173
36.9526
36.9948
37.045
37.1028
37.1689
37.2442
37.3284
37.4221
37.5257
37.6403
37.766
37.9025
38.0504
38.2109
38.3838
38.5689
38.767
38.9778
39.202
39.4393
39.6889
39.9518
40.2273
40.5142
40.8134
41.1232
41.4438
41.7746
42.1145
42.4627
42.8178
43.1797
43.5466
43.9172
44.2914
44.6672
45.043
45.4179
45.7904
46.158
46.5187
46.8707
47.2104
47.535
47.834
48.268
49.0686
48.6694
48.6815
48.8712
48.7884
48.9422
48.3124
47.7653
47.3471
46.9352
41.9871
36.9191
36.6495
36.5273
36.4176
36.3155
36.2203
36.1315
36.0496
35.9739
35.9036
35.8393
35.7804
35.7267
35.6778
35.6338
35.595
35.561
35.532
35.5078
35.4887
35.4747
35.4655
35.4615
35.4629
35.4702
35.4834
35.5023
35.5277
35.5601
35.599
35.645
35.6992
35.7616
35.8323
35.912
36.0009
36.0997
36.2087
36.3286
36.4593
36.6011
36.7545
36.92
37.0978
37.2875
37.4898
37.705
37.9328
38.1728
38.4251
38.6896
38.9663
39.2539
39.5519
39.86
40.1777
40.504
40.8385
41.18
41.5267
41.8789
42.2349
42.593
42.9527
43.3128
43.6713
44.0268
44.3786
44.7238
45.0611
45.3879
45.7009
45.9981
46.2674
46.6962
47.4441
46.9553
46.9959
47.0842
47.0001
47.0877
46.4552
45.9651
45.5847
45.2062
40.3592
35.5086
35.2315
35.1106
35.0036
34.9049
34.8127
34.7263
34.6469
34.5737
34.5055
34.4438
34.3873
34.3357
34.2892
34.2477
34.2112
34.1794
34.1528
34.1312
34.1146
34.103
34.0964
34.0954
34.0999
34.1101
34.1264
34.149
34.1781
34.214
34.2569
34.307
34.3655
34.4324
34.5078
34.5922
34.686
34.79
34.9044
35.0292
35.1649
35.3119
35.4704
35.6409
35.8232
36.0176
36.2241
36.4427
36.6735
36.9162
37.1704
37.4362
37.713
38
38.2965
38.6016
38.9156
39.237
39.5652
39.899
40.2367
40.5786
40.9222
41.267
41.6117
41.9551
42.296
42.6327
42.9633
43.2862
43.6001
43.9021
44.1895
44.4599
44.7009
45.1169
45.7855
45.2622
45.3225
45.3197
45.2342
45.2583
44.6466
44.2117
43.8592
43.5086
38.7641
34.1045
33.8213
33.7023
33.5986
33.5032
33.4144
33.3316
33.2551
33.1846
33.1193
33.0602
33.0064
32.9572
32.9133
32.8746
32.8409
32.812
32.7881
32.7691
32.7554
32.7468
32.7434
32.7454
32.7531
32.7668
32.7866
32.8128
32.8456
32.8855
32.9328
32.9873
33.0501
33.1217
33.202
33.2911
33.3901
33.4992
33.6185
33.7482
33.889
34.0411
34.2045
34.3795
34.566
34.7646
34.9746
35.1963
35.4298
35.6744
35.9299
36.1958
36.4717
36.757
37.0508
37.3526
37.6619
37.9772
38.2981
38.6231
38.9508
39.2811
39.6121
39.943
40.2723
40.599
40.9214
41.2377
41.5472
41.8482
42.139
42.4166
42.6789
42.9228
43.1372
43.5437
44.1211
43.6113
43.6712
43.5838
43.4945
43.456
42.8785
42.4956
42.1682
41.844
37.1944
32.7209
32.4301
32.3129
32.2128
32.1207
32.0353
31.9559
31.8826
31.8152
31.7531
31.6972
31.6462
31.6
31.5591
31.5232
31.4923
31.4663
31.4453
31.4293
31.4186
31.4132
31.4131
31.4185
31.4297
31.4468
31.4704
31.5005
31.5372
31.5811
31.6325
31.6917
31.7594
31.8357
31.9206
32.0147
32.1188
32.2328
32.3568
32.4916
32.6372
32.7937
32.9615
33.1407
33.3312
33.5331
33.7461
33.97
34.2051
34.4509
34.7065
34.9717
35.2462
35.5289
35.8192
36.1162
36.4195
36.7278
37.0402
37.3554
37.6726
37.9907
38.3083
38.6244
38.9378
39.2467
39.55
39.8466
40.1354
40.4143
40.682
40.9358
41.1736
41.3925
41.5824
41.975
42.4558
41.9876
42.0283
41.8733
41.7879
41.6922
41.1534
40.8149
40.5118
40.2136
35.6742
31.3635
31.0663
30.9505
30.8541
30.7659
30.6837
30.6078
30.5378
30.4735
30.4145
30.3617
30.3141
30.2708
30.2328
30.1999
30.172
30.1488
30.1307
30.118
30.1105
30.1081
30.1113
30.1202
30.1348
30.1556
30.1832
30.2172
30.2579
30.306
30.3619
30.4255
30.4976
30.5784
30.6681
30.7671
30.8757
30.9945
31.1233
31.2625
31.4126
31.5736
31.7452
31.9279
32.1216
32.3261
32.5411
32.7669
33.0027
33.2486
33.5038
33.7675
34.0393
34.3184
34.6042
34.8957
35.1923
35.4923
35.7954
36.1003
36.4058
36.7109
37.014
37.3143
37.6109
37.9018
38.1867
38.4634
38.731
38.9879
39.2331
39.4638
39.6781
39.8731
40.04
40.4163
40.8002
40.3859
40.4011
40.1956
40.1176
39.9703
39.473
39.1737
38.8956
38.6229
34.1981
30.0373
29.7352
29.6207
29.5278
29.4431
29.3647
29.2921
29.2256
29.1647
29.1088
29.0589
29.0144
28.9742
28.9389
28.9089
28.884
28.8639
28.8491
28.8394
28.8348
28.8358
28.8424
28.8547
28.8729
28.8975
28.9289
28.9668
29.0114
29.0638
29.1241
29.1922
29.2687
29.3539
29.4482
29.5518
29.6649
29.788
29.9212
30.0647
30.2188
30.3834
30.5584
30.7441
30.9402
31.1467
31.363
31.5897
31.8257
32.0708
32.3244
32.5858
32.8538
33.1286
33.4087
33.6935
33.9824
34.2735
34.5663
34.8598
35.1528
35.4441
35.7324
36.0167
36.2961
36.5692
36.8348
37.0911
37.338
37.5736
37.7967
38.0049
38.1967
38.3687
38.5135
38.8705
39.1667
38.8019
38.7885
38.5551
38.4923
38.3003
37.84
37.5697
37.3208
37.0741
32.7748
28.7451
28.4401
28.3267
28.2373
28.1559
28.081
28.0122
27.9489
27.8912
27.8387
27.7914
27.7496
27.7127
27.6805
27.6536
27.6319
27.6149
27.6031
27.5966
27.5953
27.5996
27.6095
27.6253
27.6473
27.6756
27.7106
27.7522
27.8011
27.8577
27.922
27.9944
28.0752
28.1647
28.2633
28.3713
28.4887
28.6159
28.753
28.9005
29.058
29.2258
29.4035
29.5915
29.7896
29.9973
30.2146
30.4412
30.6764
30.9199
31.1707
31.4283
31.6921
31.9615
32.2348
32.512
32.7922
33.0736
33.3553
33.6365
33.9163
34.1931
34.466
34.734
34.9959
35.2506
35.497
35.7336
35.9599
36.1743
36.3759
36.5623
36.7322
36.882
37.0068
37.3444
37.5637
37.2426
37.1999
36.9561
36.9107
36.6832
36.2575
36.0088
35.7911
35.5651
31.3992
27.4939
27.1838
27.0702
26.9841
26.9065
26.8349
26.7694
26.7097
26.6552
26.6059
26.5619
26.5232
26.4896
26.4604
26.4364
26.4176
26.4038
26.3949
26.3915
26.3935
26.4013
26.4149
26.4341
26.4596
26.4917
26.5305
26.5759
26.6288
26.6895
26.758
26.8345
26.9195
27.0132
27.1159
27.228
27.3493
27.4802
27.621
27.7716
27.932
28.1024
28.2824
28.4721
28.6713
28.8797
29.0969
29.3226
29.5562
29.7969
30.0442
30.2975
30.556
30.8189
31.0849
31.3536
31.6239
31.8945
32.1645
32.4328
32.6984
32.9602
33.2175
33.4687
33.7129
33.949
34.1762
34.3933
34.5995
34.7932
34.9738
35.1393
35.2883
35.4173
35.524
35.841
35.9947
35.7112
35.6398
35.4045
35.3775
35.1189
34.7223
34.493
34.3082
34.0957
30.0717
26.2821
25.9672
25.8533
25.7703
25.6962
25.6283
25.5663
25.51
25.4588
25.4128
25.3719
25.336
25.3052
25.2796
25.2587
25.2428
25.2321
25.2264
25.2263
25.2318
25.2429
25.2598
25.2826
25.3116
25.3474
25.3899
25.4393
25.4963
25.561
25.6334
25.7138
25.8029
25.9005
26.0072
26.123
26.2478
26.3821
26.5261
26.6795
26.8422
27.0147
27.1964
27.3872
27.5867
27.7949
28.0111
28.2349
28.466
28.7031
28.946
29.1942
29.4464
29.7018
29.9593
30.2187
30.4786
30.7377
30.9953
31.2502
31.5013
31.7479
31.9889
32.223
32.4495
32.6672
32.8754
33.0728
33.2592
33.4329
33.5935
33.7387
33.8676
33.977
34.0677
34.3639
34.4605
34.2129
34.1161
33.8999
33.8883
33.6059
33.2358
33.0222
32.8675
32.6635
28.7937
25.1063
24.7922
24.6775
24.5973
24.5264
24.4622
24.4039
24.3506
24.3028
24.2599
24.2221
24.1895
24.1619
24.1392
24.1214
24.1087
24.1011
24.0988
24.102
24.1107
24.125
24.1454
24.1719
24.2046
24.2439
24.29
24.3434
24.4043
24.4727
24.549
24.6334
24.7261
24.8275
24.9378
25.0569
25.185
25.3223
25.4688
25.6245
25.7894
25.9632
26.1455
26.3366
26.536
26.743
26.9574
27.1788
27.4063
27.6391
27.8768
28.1186
28.3637
28.6111
28.8594
29.1087
29.3573
29.6043
29.8487
30.0896
30.326
30.5567
30.7812
30.9983
31.2071
31.4066
31.5961
31.7746
31.9417
32.096
32.2371
32.3633
32.4735
32.5645
32.6409
32.9164
32.9633
32.7487
32.6321
32.4445
32.441
32.1379
31.795
31.5979
31.4689
31.2685
27.5715
23.9754
23.6595
23.5431
23.4658
23.3984
23.3376
23.2827
23.2327
23.1882
23.1487
23.114
23.0845
23.0599
23.0404
23.0257
23.0161
23.0117
23.0126
23.019
23.0311
23.0489
23.0726
23.1026
23.1389
23.1818
23.2318
23.2888
23.3533
23.4254
23.5053
23.5934
23.6897
23.7945
23.908
24.0302
24.1612
24.301
24.4496
24.607
24.7731
24.9477
25.1304
25.3212
25.5193
25.7245
25.9365
26.1544
26.3776
26.6052
26.8369
27.0718
27.3087
27.5469
27.7855
28.0238
28.2606
28.495
28.7259
28.9524
29.1734
29.3882
29.5964
29.7962
29.9873
30.1688
30.3401
30.5003
30.6489
30.7846
30.9072
31.0152
31.1078
31.1819
31.2463
31.5008
31.5043
31.3212
31.1901
31.0354
31.0321
30.7152
30.399
30.2167
30.1105
29.9134
26.393
22.8832
22.5698
22.4512
22.3762
22.3123
22.2548
22.2031
22.1567
22.1153
22.0787
22.0474
22.021
21.9994
21.9829
21.9716
21.9653
21.9641
21.9683
21.9779
21.9933
22.0144
22.0416
22.075
22.1148
22.1613
22.2149
22.2755
22.3436
22.4192
22.5027
22.5941
22.6936
22.8015
22.9179
23.0427
23.1761
23.3179
23.4682
23.6269
23.7937
23.9684
24.1506
24.3402
24.5366
24.7392
24.9477
25.1614
25.3795
25.6013
25.8261
26.053
26.2814
26.5101
26.738
26.9648
27.1892
27.4104
27.6273
27.8392
28.0448
28.2437
28.4351
28.6181
28.7921
28.9561
29.1096
29.2517
29.3824
29.5004
29.6057
29.6966
29.7726
29.8313
29.8867
30.1193
30.0859
29.9312
29.7916
29.6696
29.6576
29.3353
29.0471
28.8789
28.7911
28.5991
25.2685
21.8322
21.5233
21.4016
21.3288
21.268
21.214
21.1655
21.1223
21.0842
21.0509
21.0226
20.9993
20.9809
20.9676
20.9593
20.9561
20.9581
20.9655
20.9784
20.9971
21.0217
21.0522
21.089
21.1323
21.1823
21.2392
21.3033
21.3748
21.4537
21.5404
21.635
21.7375
21.8482
21.9671
22.0943
22.2296
22.3728
22.5242
22.6834
22.8502
23.0245
23.2056
23.3933
23.5871
23.7864
23.9908
24.1995
24.4117
24.6268
24.8441
25.0627
25.2815
25.4999
25.7169
25.9317
26.1432
26.3509
26.5537
26.7506
26.9408
27.1238
27.299
27.4652
27.6222
27.7692
27.9054
28.0304
28.144
28.2454
28.3343
28.4096
28.4704
28.5152
28.5638
28.7731
28.7108
28.5809
28.4364
28.3448
28.3193
27.9991
27.738
27.5855
27.5132
27.326
24.1911
20.8228
20.5193
20.3939
20.3229
20.2654
20.2146
20.1694
20.1293
20.0944
20.0645
20.0394
20.0192
20.004
19.9936
19.9884
19.9884
19.9936
20.0042
20.0203
20.0422
20.07
20.104
20.1441
20.1908
20.2441
20.3044
20.3718
20.4465
20.5285
20.6182
20.7156
20.8209
20.9339
21.0549
21.1838
21.3205
21.4648
21.6167
21.7759
21.9421
22.1153
22.2946
22.4798
22.6704
22.8656
23.0651
23.2681
23.4738
23.6816
23.8906
24.1
24.3089
24.5165
24.7218
24.9244
25.1229
25.3169
25.5052
25.6871
25.8621
26.0295
26.1885
26.3383
26.4787
26.6092
26.7291
26.8379
26.9356
27.0212
27.0948
27.1555
27.2026
27.2353
27.2793
27.464
27.3808
27.268
27.123
27.0567
27.0147
26.7051
26.4699
26.3328
26.2736
23.1582
19.8552
19.5576
19.4279
19.3585
19.3038
19.2563
19.2143
19.1775
19.1457
19.1188
19.0969
19.0798
19.0677
19.0606
19.0585
19.0615
19.0699
19.0837
19.1031
19.1281
19.1591
19.1964
19.2398
19.2897
19.3463
19.4098
19.4802
19.5579
19.6428
19.7351
19.8351
19.9427
20.0577
20.1803
20.3105
20.4482
20.593
20.7449
20.9036
21.0687
21.2399
21.4167
21.5988
21.7853
21.9758
22.1699
22.3666
22.565
22.7647
22.965
23.1647
23.3632
23.5596
23.7529
23.9428
24.1281
24.3082
24.4822
24.6494
24.8091
24.961
25.1044
25.2384
25.3629
25.4775
25.5819
25.6755
25.7579
25.8289
25.8884
25.9355
25.9702
25.9925
26.0343
26.1924
26.0974
22.1725
18.9252
18.6376
18.5031
18.4347
18.3828
18.3383
18.2996
18.266
18.2373
18.2136
18.1948
18.1808
18.1718
18.1677
18.1686
18.1748
18.1864
18.2033
18.2258
18.254
18.2882
18.3286
18.3751
18.4281
18.4878
18.5543
18.6276
18.708
18.7955
18.8903
18.9925
19.1019
19.2186
19.3425
19.4736
19.6116
19.7564
19.9076
20.0651
20.2284
20.3971
20.5708
20.749
20.9309
21.1162
21.304
21.4937
21.6845
21.8757
22.0666
22.2562
22.4437
22.6287
22.8101
22.9872
23.159
23.3253
23.4848
23.6375
23.7823
23.919
24.0471
24.1661
24.2755
24.3751
24.4646
24.5436
24.612
24.6697
24.7162
24.751
24.775
24.7885
24.8301
24.9602
24.8613
21.2329
18.0307
17.7587
17.6186
17.5507
17.5013
17.46
17.4245
17.3941
17.3685
17.3479
17.3322
17.3212
17.3152
17.3142
17.3183
17.3275
17.3421
17.3621
17.3876
17.419
17.4563
17.4996
17.5492
17.6052
17.6677
17.7369
17.8129
17.8958
17.9857
18.0826
18.1866
18.2975
18.4153
18.54
18.6715
18.8094
18.9535
19.1037
19.2595
19.4203
19.586
19.756
19.9296
20.1064
20.2856
20.4667
20.649
20.8315
21.0138
21.1949
21.374
21.5503
21.7235
21.8925
22.0568
22.2153
22.3677
22.5132
22.6516
22.782
22.9041
23.0175
23.1219
23.2169
23.3023
23.378
23.4435
23.4991
23.5444
23.579
23.6031
23.6179
23.6242
23.6668
23.7684
23.6717
20.337
17.1753
16.9199
16.7737
16.706
16.6589
16.6205
16.5881
16.5608
16.5384
16.5209
16.5081
16.5001
16.4971
16.4992
16.5063
16.5184
16.536
16.559
16.5876
16.6219
16.6622
16.7084
16.7609
16.8197
16.8849
16.9566
17.0349
17.1201
17.212
17.3107
17.4161
17.5281
17.6467
17.7717
17.903
18.0403
18.1833
18.3317
18.4852
18.6431
18.8051
18.9707
19.1393
19.3105
19.4831
19.657
19.8312
20.005
20.1779
20.3488
20.5172
20.6823
20.8436
21.0002
21.1517
21.2969
21.4357
21.5676
21.692
21.8083
21.9164
22.0158
22.1063
22.1878
22.2601
22.3229
22.376
22.4197
22.4537
22.4777
22.4926
22.4995
22.5001
22.5447
22.618
22.5277
19.4823
16.3552
16.1202
15.9675
15.8994
15.8544
15.8188
15.7893
15.765
15.7457
15.7312
15.7214
15.7164
15.7163
15.7214
15.7314
15.7465
15.767
15.793
15.8245
15.8617
15.9048
15.9538
16.009
16.0704
16.1381
16.2121
16.2926
16.3796
16.4732
16.5732
16.6797
16.7924
16.9113
17.0362
17.1669
17.303
17.4444
17.5906
17.7411
17.8955
18.0534
18.2141
18.3771
18.5419
18.7076
18.8737
19.0395
19.2043
19.3674
19.5281
19.6856
19.8393
19.9886
20.133
20.2716
20.4039
20.5295
20.6479
20.7588
20.8616
20.9563
21.0425
21.1201
21.1889
21.2488
21.2996
21.3415
21.3745
21.3983
21.413
21.4198
21.4202
21.4172
21.464
21.5105
21.4285
18.6715
15.5685
15.3584
15.1987
15.1297
15.0865
15.0536
15.0271
15.0058
14.9894
14.9777
14.9709
14.9689
14.9718
14.9797
14.9926
15.0107
15.0341
15.0629
15.0972
15.1371
15.1829
15.2346
15.2922
15.356
15.4259
15.5019
15.5844
15.6731
15.7679
15.8688
15.9759
16.089
16.2078
16.3321
16.4616
16.5961
16.7353
16.8787
17.0258
17.1761
17.3294
17.4847
17.6417
17.7997
17.958
18.116
18.2731
18.4286
18.5817
18.7319
18.8784
19.0207
19.1581
19.2902
19.4163
19.536
19.6488
19.7542
19.852
19.942
20.0241
20.0979
20.1633
20.2203
20.2689
20.3089
20.3404
20.3637
20.3785
20.3853
20.3856
20.3805
20.3757
20.424
20.4465
20.3707
17.8952
14.8141
14.6334
14.4665
14.3961
14.3545
14.324
14.3002
14.2818
14.2683
14.2596
14.2557
14.2566
14.2623
14.2731
14.2888
14.3097
14.3358
14.3674
14.4044
14.447
14.4953
14.5493
14.6093
14.6752
14.7471
14.8249
14.9089
14.9988
15.0946
15.1962
15.3036
15.4165
15.5347
15.6579
15.7858
15.9182
16.0546
16.1948
16.338
16.4839
16.6319
16.7814
16.9318
17.0827
17.2333
17.3829
17.5311
17.6769
17.82
17.9596
18.0951
18.226
18.3517
18.4718
18.5856
18.693
18.7934
18.8865
18.9721
19.05
19.1201
19.1822
19.2364
19.2825
19.3206
19.3508
19.3732
19.3877
19.3947
19.3949
19.3897
19.3802
19.3756
19.424
19.4265
17.1586
14.0911
13.9438
13.7696
13.6973
13.657
13.6288
13.6076
13.592
13.5813
13.5754
13.5744
13.5782
13.5867
13.6002
13.6187
13.6423
13.6712
13.7053
13.7448
13.7899
13.8405
13.8968
13.9589
14.0267
14.1003
14.1796
14.2647
14.3556
14.452
14.5538
14.661
14.7734
14.8905
15.0122
15.1381
15.2679
15.4012
15.5376
15.6764
15.8173
15.9597
16.103
16.2466
16.39
16.5325
16.6736
16.8125
16.9487
17.0816
17.2106
17.3352
17.4548
17.5691
17.6774
17.7795
17.8749
17.9634
18.0448
18.1188
18.1854
18.2443
18.2955
18.3394
18.3755
18.4043
18.4257
18.4398
18.4468
18.447
18.4418
18.4322
18.4197
18.4171
18.4635
18.4502
16.4592
13.3982
13.2884
13.107
13.0323
12.9928
12.9667
12.9481
12.9352