/*--------------------------------*- C++ -*----------------------------------*\
  =========                 |
  \\      /  F ield         | OpenFOAM: The Open Source CFD Toolbox
   \\    /   O peration     | Website:  https://openfoam.org
    \\  /    A nd           | Version:  9
     \\/     M anipulation  |
\*---------------------------------------------------------------------------*/
FoamFile
{
    format      ascii;
    class       volScalarField;
    location    "1500";
    object      p;
}
// * * * * * * * * * * * * * * * * * * * * * * * * * * * * * * * * * * * * * //

dimensions      [0 2 -2 0 0 0 0];

internalField   nonuniform List<scalar> 
13617
(
0.000916225
0.000898639
0.000893808
0.000880916
0.000867377
0.000845429
0.00082052
0.000786518
0.000746986
0.000697217
0.000639114
0.000569167
0.000488235
0.000393668
0.000285493
0.000161792
2.2159e-05
-0.000134847
-0.000309782
-0.000503665
-0.000717119
-0.000950847
-0.00120529
-0.00148093
-0.00177815
-0.00209717
-0.00243832
-0.00280175
-0.00318782
-0.00359672
-0.00402898
-0.0044851
-0.00496573
-0.00547178
-0.00600428
-0.00656463
-0.00715412
-0.00777467
-0.00842763
-0.00911502
-0.00983866
-0.0106001
-0.0114004
-0.0122405
-0.0131206
-0.0140399
-0.0149973
-0.0159897
-0.0170135
-0.0180635
-0.0191326
-0.0202138
-0.0212965
-0.0223703
-0.0234246
-0.0244448
-0.0254179
-0.0263296
-0.0271647
-0.0279085
-0.0285469
-0.0290646
-0.0294487
-0.0296877
-0.0297712
-0.0296931
-0.0294514
-0.0290543
-0.0285259
-0.0278991
-0.0272596
-0.026741
-0.0265361
-0.0268898
-0.0279094
-0.0295197
-0.0315448
-0.0344614
-0.045337
-0.0813237
-0.1458
-0.218739
-0.28146
-0.375382
-0.522086
-0.708686
0.000927451
0.000902014
0.000897185
0.000884381
0.000870881
0.000848997
0.000824102
0.000790094
0.000750513
0.00070065
0.00064239
0.000572243
0.000491048
0.000396137
0.000287585
0.000163385
2.32171e-05
-0.000134413
-0.00031003
-0.000504686
-0.000718951
-0.000953566
-0.00120891
-0.00148556
-0.00178369
-0.00210375
-0.00244586
-0.00281025
-0.00319716
-0.00360696
-0.00403987
-0.00449651
-0.00497744
-0.00548371
-0.00601602
-0.00657583
-0.0071645
-0.00778355
-0.00843463
-0.00911935
-0.00983949
-0.0105963
-0.0113909
-0.0122239
-0.0130952
-0.0140038
-0.0149482
-0.0159253
-0.0169309
-0.0179595
-0.0190049
-0.0200581
-0.0211104
-0.0221509
-0.0231688
-0.0241517
-0.0250868
-0.0259623
-0.026765
-0.0274838
-0.0281083
-0.0286311
-0.0290462
-0.0293523
-0.0295545
-0.029664
-0.0297089
-0.0297285
-0.0297938
-0.0300052
-0.0305302
-0.0316255
-0.0336767
-0.0372072
-0.0428681
-0.0518033
-0.0664114
-0.0908872
-0.132795
-0.20607
-0.285133
-0.338107
-0.376196
-0.425952
-0.507788
-0.631386
0.000932005
0.000906491
0.000901721
0.000889035
0.000875554
0.000853715
0.000828804
0.000794753
0.000755048
0.000705018
0.000646548
0.000576104
0.000494551
0.000399213
0.000290152
0.000165398
2.45645e-05
-0.000133786
-0.0003102
-0.000505696
-0.000720898
-0.000956419
-0.00121281
-0.00149039
-0.00178959
-0.00211062
-0.00245365
-0.00281895
-0.00320666
-0.00361706
-0.00405054
-0.0045075
-0.00498858
-0.00549452
-0.00602644
-0.00658526
-0.00717254
-0.00778954
-0.0084379
-0.0091193
-0.00983484
-0.010586
-0.0113735
-0.012198
-0.0130588
-0.013955
-0.0148842
-0.0158435
-0.0168285
-0.0178333
-0.0188513
-0.0198737
-0.0208922
-0.0218965
-0.0228747
-0.0238166
-0.0247109
-0.0255462
-0.0263133
-0.027003
-0.0276092
-0.0281309
-0.0285683
-0.028929
-0.029232
-0.029503
-0.0297929
-0.0301666
-0.0307315
-0.0316427
-0.0331234
-0.0355317
-0.0393914
-0.0454827
-0.0550417
-0.0704909
-0.0967515
-0.141832
-0.215318
-0.323851
-0.425211
-0.475724
-0.499219
-0.518831
-0.549851
-0.608986
0.00093263
0.00091055
0.000905875
0.000893303
0.00087984
0.000858035
0.000833085
0.000798961
0.000759142
0.000708931
0.000650214
0.000579486
0.000497541
0.000401777
0.000292179
0.000166853
2.53719e-05
-0.000133698
-0.000310922
-0.000507271
-0.000723358
-0.000959893
-0.00121721
-0.00149588
-0.00179609
-0.00211816
-0.00246218
-0.00282845
-0.00321705
-0.00362829
-0.0040624
-0.00451992
-0.00500134
-0.00550745
-0.00603912
-0.00659751
-0.00718376
-0.00779945
-0.00844579
-0.0091244
-0.00983641
-0.010583
-0.011365
-0.0121821
-0.0130343
-0.01392
-0.0148367
-0.0157814
-0.0167492
-0.0177344
-0.0187301
-0.0197284
-0.0207201
-0.0216954
-0.0226443
-0.0235568
-0.024423
-0.0252336
-0.0259821
-0.0266627
-0.0272745
-0.0278198
-0.0283095
-0.0287604
-0.0292037
-0.0296831
-0.0302701
-0.0310622
-0.0322048
-0.0339054
-0.0364603
-0.0403267
-0.0461518
-0.054941
-0.0682617
-0.0889485
-0.122211
-0.176118
-0.259821
-0.377245
-0.492446
-0.561625
-0.588808
-0.596904
-0.591095
-0.592251
0.000934277
0.000914117
0.000909539
0.000897078
0.000883632
0.000861861
0.000836869
0.000802701
0.000762745
0.000712374
0.000653436
0.000582403
0.000500124
0.000403936
0.000293869
0.00016797
2.58563e-05
-0.000133904
-0.000311855
-0.000509044
-0.000726006
-0.000963434
-0.00122177
-0.00150139
-0.00180263
-0.00212569
-0.00247075
-0.00283794
-0.00322749
-0.00363956
-0.0040744
-0.00453249
-0.00501438
-0.00552065
-0.00605224
-0.00661032
-0.00719583
-0.00781022
-0.00845492
-0.00913091
-0.00983986
-0.0105823
-0.0113588
-0.0121696
-0.0130136
-0.0138897
-0.0147952
-0.0157262
-0.0166783
-0.0176459
-0.0186214
-0.0195974
-0.0205652
-0.0215152
-0.0224386
-0.0233254
-0.0241679
-0.0249587
-0.025693
-0.0263687
-0.0269895
-0.0275613
-0.0281035
-0.0286404
-0.0292138
-0.0298827
-0.0307352
-0.0318918
-0.0335281
-0.0358903
-0.0393212
-0.0443318
-0.0516393
-0.0623222
-0.0780209
-0.101421
-0.137047
-0.191626
-0.272567
-0.383153
-0.500119
-0.587252
-0.631713
-0.641246
-0.621458
-0.589076
0.000937293
0.000917636
0.000913144
0.000900787
0.000887364
0.000865625
0.000840614
0.000806379
0.000766325
0.000715797
0.000656627
0.000585335
0.00050272
0.000406124
0.000295582
0.000169159
2.64574e-05
-0.000133982
-0.000312685
-0.000510665
-0.000728456
-0.000966817
-0.00122603
-0.00150666
-0.00180883
-0.00213287
-0.0024789
-0.00284701
-0.00323739
-0.00365018
-0.00408573
-0.00454435
-0.00502642
-0.00553288
-0.00606429
-0.00662173
-0.00720636
-0.00781928
-0.00846188
-0.00913526
-0.00984047
-0.0105784
-0.0113492
-0.0121528
-0.0129883
-0.013854
-0.014747
-0.0156638
-0.0165994
-0.017548
-0.0185024
-0.019455
-0.0203974
-0.0213208
-0.022216
-0.0230751
-0.0238908
-0.0246575
-0.0253722
-0.0260361
-0.0266544
-0.0272392
-0.0278126
-0.0284056
-0.0290673
-0.0298651
-0.0308959
-0.0322928
-0.0342421
-0.0370034
-0.04093
-0.0465287
-0.054515
-0.0659126
-0.0822378
-0.105846
-0.140428
-0.191295
-0.264212
-0.362182
-0.472619
-0.568666
-0.627841
-0.636914
-0.61489
-0.571847
0.000940345
0.000921272
0.00091686
0.000904597
0.000891206
0.000869494
0.000844456
0.000810169
0.000770005
0.000719323
0.000659939
0.000588384
0.000505418
0.000408435
0.000297442
0.000170479
2.71644e-05
-0.000133936
-0.00031335
-0.000512102
-0.000730749
-0.000969961
-0.00123012
-0.00151165
-0.0018148
-0.00213974
-0.00248668
-0.00285564
-0.00324683
-0.00366032
-0.0040964
-0.0045554
-0.00503773
-0.00554405
-0.00607516
-0.0066318
-0.00721526
-0.00782653
-0.00846666
-0.00913694
-0.00983813
-0.0105709
-0.0113355
-0.0121314
-0.0129576
-0.0138121
-0.0146919
-0.0155935
-0.0165112
-0.01744
-0.0183721
-0.0193
-0.0202159
-0.0211107
-0.0219764
-0.0228058
-0.0235922
-0.0243316
-0.0250229
-0.0256691
-0.0262772
-0.0268633
-0.0274519
-0.0280774
-0.0287935
-0.0296706
-0.0308096
-0.0323465
-0.0344632
-0.0374147
-0.0415406
-0.047311
-0.0553799
-0.0666558
-0.0824623
-0.10474
-0.136359
-0.181258
-0.243651
-0.325988
-0.421886
-0.513436
-0.576846
-0.590926
-0.566848
-0.527073
0.000943005
0.000924954
0.000920602
0.000908446
0.000895068
0.000873392
0.000848324
0.000813989
0.000773713
0.000722862
0.000663277
0.000591437
0.000508148
0.000410762
0.000299302
0.000171825
2.79087e-05
-0.000133843
-0.000313973
-0.000513505
-0.000732977
-0.00097304
-0.00123409
-0.00151653
-0.00182058
-0.00214645
-0.00249421
-0.002864
-0.00325589
-0.00367004
-0.00410662
-0.0045659
-0.00504834
-0.00555451
-0.00608504
-0.00664095
-0.00722294
-0.00783231
-0.00846986
-0.00913677
-0.00983366
-0.010561
-0.0113189
-0.0121067
-0.012923
-0.013766
-0.0146322
-0.0155179
-0.0164177
-0.0173259
-0.0182351
-0.0191383
-0.0200268
-0.020893
-0.0217291
-0.0225286
-0.0232853
-0.0239971
-0.0246636
-0.0252896
-0.0258844
-0.0264654
-0.027059
-0.0277032
-0.0284509
-0.029375
-0.0305748
-0.0321808
-0.0343687
-0.0373732
-0.0415053
-0.0471847
-0.0549753
-0.0656557
-0.0803128
-0.100444
-0.128122
-0.166048
-0.216997
-0.282492
-0.359332
-0.436054
-0.494236
-0.511415
-0.493819
-0.457988
0.000945623
0.000928598
0.0009243
0.000912252
0.000898887
0.00087725
0.000852151
0.000817759
0.000777363
0.000726361
0.000666555
0.000594452
0.000510808
0.000413054
0.00030113
0.000173106
2.86272e-05
-0.000133767
-0.000314597
-0.00051491
-0.00073514
-0.000976073
-0.00123797
-0.00152129
-0.0018262
-0.00215293
-0.00250152
-0.00287209
-0.00326462
-0.00367933
-0.0041163
-0.00457581
-0.00505828
-0.0055641
-0.00609411
-0.00664887
-0.00722945
-0.00783661
-0.00847146
-0.0091347
-0.00982704
-0.0105486
-0.0112995
-0.0120788
-0.0128849
-0.0137157
-0.014568
-0.0154374
-0.0163187
-0.0172058
-0.0180921
-0.0189697
-0.0198311
-0.0206686
-0.0214747
-0.0222439
-0.0229709
-0.0236543
-0.0242947
-0.0248982
-0.025476
-0.0260456
-0.0266346
-0.0272821
-0.02804
-0.0289802
-0.0301947
-0.0318091
-0.0339815
-0.0369239
-0.0409094
-0.0462917
-0.0535482
-0.0633049
-0.0763893
-0.0938815
-0.117189
-0.147942
-0.187752
-0.237359
-0.294758
-0.352852
-0.399338
-0.417536
-0.406283
-0.372363
0.000948407
0.000932164
0.000927955
0.000916002
0.000902654
0.000881044
0.000855912
0.000821457
0.000780954
0.000729797
0.00066977
0.000597403
0.000513445
0.000415271
0.000302885
0.00017438
2.93195e-05
-0.000133711
-0.00031523
-0.000516238
-0.000737306
-0.000978991
-0.00124174
-0.00152589
-0.00183165
-0.00215915
-0.00250853
-0.00287974
-0.00327291
-0.00368808
-0.00412538
-0.00458499
-0.0050673
-0.0055728
-0.00610193
-0.00665555
-0.00723434
-0.00783923
-0.00847098
-0.00913027
-0.0098176
-0.0105331
-0.0112765
-0.0120467
-0.0128422
-0.0136603
-0.0144979
-0.0153502
-0.0162125
-0.017078
-0.0179406
-0.018792
-0.0196257
-0.0204338
-0.0212093
-0.0219469
-0.0226431
-0.0232961
-0.0239083
-0.0244854
-0.0250402
-0.0255904
-0.0261629
-0.0267959
-0.0275406
-0.0284613
-0.0296456
-0.0312063
-0.0332805
-0.0360534
-0.0397543
-0.0446704
-0.0511848
-0.0597613
-0.0709948
-0.0856086
-0.104453
-0.128412
-0.158237
-0.194079
-0.234412
-0.274644
-0.306896
-0.320482
-0.311672
-0.283672
0.000951274
0.000935698
0.000931554
0.000919703
0.000906368
0.000884789
0.000859616
0.000825113
0.000784492
0.000733176
0.000672933
0.000600306
0.00051601
0.000417465
0.000304638
0.000175623
2.99979e-05
-0.000133627
-0.000315838
-0.000517558
-0.000739328
-0.00098184
-0.00124534
-0.00153029
-0.00183682
-0.00216509
-0.00251514
-0.00288698
-0.00328069
-0.00369619
-0.00413369
-0.00459335
-0.00507538
-0.00558025
-0.00610844
-0.00666067
-0.00723744
-0.00783974
-0.00846811
-0.00912303
-0.00980499
-0.0105139
-0.0112492
-0.0120099
-0.0127939
-0.0135988
-0.0144208
-0.0152555
-0.0160976
-0.016941
-0.0177786
-0.0186035
-0.0194083
-0.0201858
-0.0209299
-0.0216348
-0.0222983
-0.0229188
-0.0234992
-0.0240459
-0.0245708
-0.0250927
-0.0256362
-0.0262377
-0.0269443
-0.0278146
-0.0289258
-0.0303759
-0.0322819
-0.0347948
-0.0381009
-0.0424256
-0.048046
-0.055297
-0.0645677
-0.0762771
-0.090876
-0.108759
-0.13012
-0.154715
-0.181229
-0.206594
-0.225822
-0.23253
-0.223484
-0.19953
0.000954135
0.000939201
0.000935118
0.000923364
0.000910041
0.000888487
0.000863278
0.000828715
0.00078798
0.000736513
0.000676058
0.00060316
0.000518545
0.00041963
0.000306378
0.000176857
3.06896e-05
-0.00013356
-0.000316379
-0.000518799
-0.000741297
-0.000984542
-0.00124879
-0.00153448
-0.00184172
-0.00217069
-0.00252132
-0.00289373
-0.00328783
-0.00370362
-0.00414119
-0.00460073
-0.00508233
-0.00558642
-0.00611348
-0.00666398
-0.00723863
-0.0078379
-0.00846246
-0.00911279
-0.00978879
-0.0104906
-0.0112174
-0.0119678
-0.0127397
-0.0135304
-0.0143362
-0.0151524
-0.0159736
-0.0167937
-0.0176058
-0.0184029
-0.0191778
-0.0199239
-0.0206352
-0.0213066
-0.0219353
-0.0225213
-0.0230665
-0.0235786
-0.0240677
-0.024552
-0.0250554
-0.025609
-0.0262557
-0.0270482
-0.0280499
-0.0293438
-0.0310265
-0.0332141
-0.0360509
-0.0397032
-0.0443578
-0.0502337
-0.0575535
-0.0665213
-0.0773061
-0.0899853
-0.104432
-0.12018
-0.136118
-0.150145
-0.159114
-0.159352
-0.148716
-0.127526
0.000956988
0.000942675
0.000938645
0.000926978
0.000913667
0.000892134
0.00086689
0.000832276
0.000791415
0.000739788
0.000679128
0.000605973
0.000521036
0.000421753
0.000308062
0.000178078
3.13631e-05
-0.000133452
-0.000316896
-0.000519987
-0.000743152
-0.000987087
-0.00125205
-0.00153843
-0.00184634
-0.00217589
-0.00252709
-0.00289992
-0.00329429
-0.00371029
-0.00414782
-0.00460698
-0.00508803
-0.00559119
-0.00611685
-0.00666542
-0.00723751
-0.0078335
-0.00845394
-0.00909908
-0.0097689
-0.010463
-0.0111805
-0.0119198
-0.0126789
-0.0134548
-0.0142434
-0.0150403
-0.0158397
-0.0166354
-0.0174212
-0.0181895
-0.0189338
-0.0196475
-0.0203247
-0.020961
-0.0215535
-0.0221024
-0.0226097
-0.0230824
-0.0235302
-0.0239691
-0.0244212
-0.024913
-0.0254813
-0.0261712
-0.027034
-0.0281363
-0.029554
-0.031374
-0.0336986
-0.0366391
-0.0403148
-0.0448427
-0.0503253
-0.0568142
-0.0642987
-0.0726724
-0.0816409
-0.0906822
-0.098883
-0.104784
-0.106436
-0.101743
-0.0895086
-0.0701124
0.000959854
0.000946098
0.000942117
0.000930544
0.000917237
0.000895727
0.00087045
0.000835763
0.000794792
0.000743011
0.000682135
0.000608723
0.000523478
0.00042382
0.000309712
0.000179263
3.20418e-05
-0.000133338
-0.000317382
-0.000521087
-0.000744914
-0.000989479
-0.00125512
-0.0015421
-0.00185061
-0.00218068
-0.00253236
-0.0029055
-0.00330009
-0.00371607
-0.00415338
-0.00461214
-0.00509236
-0.00559437
-0.00611832
-0.00666477
-0.00723391
-0.00782635
-0.00844217
-0.00908167
-0.00974461
-0.0104304
-0.011138
-0.0118657
-0.0126113
-0.0133713
-0.0141419
-0.0149184
-0.0156951
-0.0164657
-0.017224
-0.0179626
-0.0186753
-0.0193553
-0.0199972
-0.0205969
-0.0211514
-0.0216609
-0.0221273
-0.0225561
-0.0229567
-0.023343
-0.0237331
-0.0241505
-0.0246244
-0.0251918
-0.0258936
-0.0267793
-0.0279046
-0.0293316
-0.0311255
-0.0333532
-0.0360766
-0.0393358
-0.0431473
-0.0474688
-0.0521907
-0.0571077
-0.0618757
-0.0659939
-0.0687424
-0.0691183
-0.0659181
-0.0579741
-0.0446894
-0.0265006
0.000962725
0.000949475
0.000945534
0.000934051
0.000920747
0.000899263
0.000873935
0.000839188
0.0007981
0.000746164
0.000685076
0.000611418
0.000525859
0.00042584
0.000311333
0.000180415
3.26986e-05
-0.000133201
-0.000317818
-0.000522111
-0.00074654
-0.000991734
-0.00125792
-0.00154552
-0.0018545
-0.00218504
-0.00253701
-0.0029104
-0.00330508
-0.00372089
-0.00415789
-0.00461596
-0.00509519
-0.00559571
-0.00611782
-0.00666168
-0.00722764
-0.00781604
-0.00842683
-0.00906014
-0.00971563
-0.0103925
-0.0110895
-0.0118048
-0.0125359
-0.0132793
-0.014031
-0.0147861
-0.0155391
-0.0162837
-0.0170134
-0.0177213
-0.0184011
-0.0190463
-0.0196517
-0.0202132
-0.0207279
-0.0211955
-0.0216176
-0.0219986
-0.0223468
-0.022673
-0.0229924
-0.0233239
-0.0236909
-0.024121
-0.0246453
-0.0252988
-0.0261183
-0.0271424
-0.0284091
-0.0299487
-0.0317756
-0.0338818
-0.0362268
-0.038715
-0.0411871
-0.0434074
-0.0450429
-0.0456578
-0.0447088
-0.0415272
-0.0353664
-0.0256009
-0.0119802
0.00508828
0.000965576
0.000952802
0.000948893
0.000937497
0.000924194
0.000902721
0.00087735
0.000842543
0.000801334
0.000749245
0.000687946
0.000614041
0.000528177
0.000427822
0.0003129
0.000181568
3.33685e-05
-0.000133057
-0.000318205
-0.000523057
-0.000748031
-0.000993779
-0.00126053
-0.00154856
-0.00185802
-0.00218887
-0.00254112
-0.00291456
-0.00330915
-0.0037247
-0.00416114
-0.00461832
-0.00509632
-0.00559518
-0.00611501
-0.00665608
-0.00721843
-0.00780224
-0.00840761
-0.00903425
-0.00968157
-0.0103488
-0.0110346
-0.0117366
-0.0124523
-0.0131782
-0.0139101
-0.0146429
-0.015371
-0.0160885
-0.0167886
-0.0174648
-0.0181106
-0.01872
-0.0192874
-0.0198089
-0.020282
-0.0207052
-0.0210798
-0.0214096
-0.0217002
-0.0219604
-0.022202
-0.0224393
-0.0226898
-0.0229728
-0.0233093
-0.0237229
-0.0242341
-0.0248625
-0.0256239
-0.02652
-0.0275335
-0.0286248
-0.0297208
-0.0306997
-0.0313907
-0.0315684
-0.0309389
-0.0291523
-0.0258118
-0.0204824
-0.0127265
-0.00220683
0.0111251
0.0269156
0.000968428
0.000956079
0.000952193
0.000940876
0.000927568
0.00090611
0.000880695
0.000845824
0.000804489
0.00075225
0.00069074
0.000616587
0.000530432
0.000429739
0.00031445
0.000182665
3.40288e-05
-0.000132882
-0.000318538
-0.000523891
-0.000749397
-0.000995629
-0.00126282
-0.00155127
-0.00186106
-0.00219217
-0.00254448
-0.00291793
-0.00331224
-0.00372738
-0.004163
-0.00461911
-0.0050956
-0.00559251
-0.00610981
-0.00664755
-0.00720594
-0.00778478
-0.00838409
-0.00900341
-0.00964208
-0.010299
-0.0109725
-0.0116605
-0.0123601
-0.0130674
-0.0137784
-0.0144879
-0.0151903
-0.0158795
-0.016549
-0.0171924
-0.0178032
-0.0183756
-0.0189038
-0.0193841
-0.0198134
-0.0201902
-0.0205148
-0.0207895
-0.0210185
-0.0212078
-0.0213663
-0.0215038
-0.0216313
-0.0217624
-0.0219091
-0.0220833
-0.0222946
-0.0225476
-0.0228392
-0.0231514
-0.0234484
-0.0236723
-0.0237341
-0.0235087
-0.0228354
-0.0215134
-0.0193065
-0.0159476
-0.0111629
-0.00467721
0.00376163
0.0142979
0.0269057
0.0412825
0.000971258
0.000959272
0.00095542
0.000944182
0.000930863
0.000909426
0.000883952
0.000849014
0.00080756
0.000755162
0.000693459
0.000619059
0.000532613
0.000431599
0.000315929
0.00018377
3.46683e-05
-0.000132675
-0.000318798
-0.000524627
-0.000750579
-0.000997235
-0.00126483
-0.00155361
-0.00186359
-0.00219482
-0.00254714
-0.00292037
-0.00331433
-0.00372873
-0.00416341
-0.00461817
-0.0050929
-0.00558749
-0.00610189
-0.00663603
-0.00718987
-0.00776331
-0.00835596
-0.00896733
-0.00959661
-0.0102425
-0.0109031
-0.0115761
-0.0122585
-0.0129464
-0.0136355
-0.0143207
-0.0149963
-0.0156563
-0.0162943
-0.0169037
-0.0174784
-0.0180125
-0.0185005
-0.0189382
-0.019322
-0.0196507
-0.019923
-0.02014
-0.0203043
-0.0204195
-0.0204913
-0.0205258
-0.0205284
-0.0205069
-0.0204664
-0.0204104
-0.020339
-0.0202448
-0.0201126
-0.0199117
-0.0195964
-0.0191012
-0.0183334
-0.0171787
-0.0154966
-0.0131193
-0.00986976
-0.00555066
1.26105e-05
0.00698798
0.0155058
0.0256127
0.0372415
0.0501566
0.000974043
0.000962411
0.000958577
0.000947403
0.000934081
0.000912651
0.000887123
0.000852119
0.000810545
0.000757995
0.000696081
0.000621459
0.000534719
0.000433389
0.000317368
0.000184823
3.53278e-05
-0.000132449
-0.000318985
-0.000525237
-0.000751578
-0.000998601
-0.00126647
-0.00155549
-0.0018656
-0.00219681
-0.00254899
-0.00292183
-0.00331517
-0.00372871
-0.00416218
-0.00461537
-0.00508799
-0.00557992
-0.00609101
-0.00662115
-0.00716998
-0.00773743
-0.0083229
-0.00892574
-0.00954488
-0.0101789
-0.0108257
-0.0114829
-0.0121471
-0.0128147
-0.0134809
-0.0141409
-0.0147887
-0.0154185
-0.0160239
-0.0165984
-0.0171361
-0.0176309
-0.0180775
-0.0184712
-0.0188087
-0.0190874
-0.0193058
-0.0194634
-0.0195611
-0.0196003
-0.019584
-0.0195145
-0.0193938
-0.019224
-0.0190048
-0.0187335
-0.0184018
-0.0179954
-0.0174917
-0.0168527
-0.0160301
-0.0149572
-0.0135487
-0.0117054
-0.00931045
-0.00623562
-0.00234965
0.00248052
0.00836642
0.0153967
0.0236268
0.0330559
0.0436028
0.0550838
0.000976787
0.00096548
0.000961648
0.000950543
0.000937212
0.000915783
0.000890203
0.000855131
0.000813429
0.000760732
0.000698616
0.00062376
0.000536752
0.000435119
0.000318756
0.000185849
3.599e-05
-0.000132175
-0.000319087
-0.000525705
-0.000752374
-0.000999673
-0.00126777
-0.00155688
-0.00186702
-0.00219809
-0.00254988
-0.00292224
-0.00331475
-0.00372718
-0.00415919
-0.00461046
-0.00508068
-0.00556963
-0.006077
-0.00660257
-0.00714602
-0.00770687
-0.00828452
-0.00887811
-0.00948632
-0.0101077
-0.0107399
-0.0113803
-0.0120256
-0.0126718
-0.0133142
-0.0139479
-0.0145671
-0.0151657
-0.0157377
-0.0162765
-0.0167762
-0.0172309
-0.0176351
-0.0179842
-0.0182743
-0.018502
-0.0186653
-0.0187625
-0.0187929
-0.018756
-0.0186522
-0.018481
-0.0182412
-0.017931
-0.0175462
-0.0170783
-0.0165146
-0.0158364
-0.0150165
-0.0140157
-0.012787
-0.0112667
-0.00938319
-0.00705569
-0.00419144
-0.000695026
0.0035238
0.00854904
0.0144472
0.021259
0.028995
0.0376214
0.0470727
0.0571924
0.000979475
0.000968467
0.000964636
0.000953597
0.000940248
0.000918824
0.00089318
0.000858036
0.000816211
0.000763365
0.000701059
0.000625972
0.000538702
0.000436774
0.000320107
0.00018686
3.66521e-05
-0.000131847
-0.000319102
-0.000526004
-0.000752946
-0.00100044
-0.00126865
-0.00155777
-0.00186776
-0.00219853
-0.00254985
-0.00292142
-0.00331296
-0.00372402
-0.00415426
-0.00460328
-0.00507077
-0.00555632
-0.00605956
-0.00658013
-0.00711758
-0.00767123
-0.00824037
-0.00882402
-0.00942063
-0.0100285
-0.0106453
-0.0112681
-0.0118935
-0.0125173
-0.0131351
-0.0137416
-0.0143312
-0.0148978
-0.0154355
-0.015938
-0.016399
-0.0168129
-0.0171743
-0.017478
-0.0177199
-0.0178964
-0.0180041
-0.018041
-0.0180049
-0.017893
-0.0177043
-0.0174359
-0.0170843
-0.0166446
-0.0161098
-0.0154681
-0.014704
-0.0137969
-0.0127174
-0.011429
-0.00988799
-0.00803963
-0.00582499
-0.00318098
-3.92147e-05
0.00366723
0.00799545
0.0129998
0.0187115
0.0251388
0.0322698
0.0400613
0.0484479
0.0573162
0.000982122
0.000971376
0.000967534
0.000956556
0.000943184
0.000921758
0.000896053
0.000860835
0.000818887
0.000765893
0.000703388
0.000628095
0.000540569
0.000438373
0.000321396
0.000187857
3.73256e-05
-0.000131459
-0.000318998
-0.000526153
-0.000753261
-0.00100087
-0.00126907
-0.00155806
-0.00186778
-0.00219809
-0.00254873
-0.00291935
-0.00330962
-0.00371905
-0.00414724
-0.00459372
-0.00505805
-0.00553978
-0.00603843
-0.00655349
-0.00708432
-0.00763021
-0.00819024
-0.00876316
-0.00934741
-0.00994098
-0.0105414
-0.0111457
-0.0117503
-0.012351
-0.0129432
-0.0135216
-0.0140809
-0.0146148
-0.0151175
-0.015583
-0.016005
-0.0163776
-0.0166958
-0.0169538
-0.0171475
-0.0172729
-0.0173258
-0.0173032
-0.0172018
-0.0170181
-0.016749
-0.01639
-0.0159364
-0.0153808
-0.014714
-0.0139231
-0.0129915
-0.0118979
-0.0106138
-0.00910737
-0.00733994
-0.00526665
-0.00284259
-1.97682e-05
0.00325008
0.00700874
0.0112921
0.0161309
0.0215311
0.0274865
0.0339699
0.0409381
0.0483305
0.056063
0.000984694
0.000974198
0.000970338
0.00095941
0.000946014
0.000924586
0.000898811
0.000863525
0.000821449
0.000768311
0.000705623
0.000630117
0.000542346
0.000439896
0.000322647
0.000188836
3.80371e-05
-0.000131021
-0.000318761
-0.000526084
-0.000753298
-0.0010009
-0.00126899
-0.00155774
-0.00186701
-0.00219668
-0.00254643
-0.00291588
-0.00330459
-0.00371215
-0.00413793
-0.00458153
-0.00504232
-0.00551977
-0.00601333
-0.0065223
-0.007046
-0.00758349
-0.00813366
-0.00869519
-0.00926622
-0.00984467
-0.0104279
-0.0110129
-0.0115958
-0.0121725
-0.0127383
-0.013288
-0.0138162
-0.0143169
-0.0147842
-0.0152121
-0.0155946
-0.0159261
-0.0162008
-0.0164135
-0.0165595
-0.0166344
-0.0166337
-0.0165537
-0.01639
-0.0161387
-0.0157955
-0.0153546
-0.0148101
-0.0141537
-0.0133749
-0.0124605
-0.0113944
-0.0101556
-0.0087191
-0.00705784
-0.00513935
-0.00292966
-0.000394887
0.00249804
0.00578141
0.0094787
0.0136121
0.0181917
0.0232103
0.0286539
0.0344897
0.0406759
0.047162
0.0538797
0.000987197
0.000976927
0.000973037
0.000962157
0.000948732
0.000927297
0.000901455
0.000866093
0.00082389
0.000770612
0.000707734
0.000632036
0.000544041
0.000441352
0.000323851
0.00018979
3.87608e-05
-0.000130484
-0.000318389
-0.000525786
-0.00075302
-0.0010005
-0.00126838
-0.0015567
-0.0018654
-0.00219422
-0.00254285
-0.00291087
-0.00329781
-0.0037031
-0.00412619
-0.00456647
-0.00502329
-0.00549605
-0.00598398
-0.00648635
-0.00700226
-0.00753067
-0.00807033
-0.00861962
-0.0091767
-0.00973927
-0.0103045
-0.0108693
-0.0114298
-0.0119817
-0.0125204
-0.0130408
-0.0135373
-0.0140043
-0.0144358
-0.0148261
-0.0151692
-0.0154594
-0.0156912
-0.0158592
-0.0159584
-0.0159843
-0.0159322
-0.0157977
-0.0155759
-0.0152626
-0.0148525
-0.0143392
-0.0137163
-0.0129751
-0.0121053
-0.0110936
-0.00992484
-0.00858036
-0.00703938
-0.00527932
-0.00327496
-0.00100164
0.00156366
0.00444448
0.00765711
0.0112159
0.0151281
0.0193927
0.0239982
0.0289237
0.0341371
0.0395999
0.0452671
0.0510893
0.000989613
0.000979552
0.000975628
0.000964793
0.000951332
0.000929887
0.000903972
0.000868534
0.000826203
0.000772786
0.000709733
0.000633846
0.000545638
0.000442727
0.000325004
0.000190737
3.95396e-05
-0.000129853
-0.000317843
-0.000525259
-0.000752377
-0.000999655
-0.00126714
-0.00155492
-0.00186281
-0.00219059
-0.00253788
-0.00290423
-0.00328905
-0.0036918
-0.00411181
-0.00454836
-0.0050008
-0.00546831
-0.00595012
-0.00644527
-0.00695279
-0.00747147
-0.00799984
-0.0085362
-0.00907857
-0.00962442
-0.0101709
-0.0107147
-0.011252
-0.0117785
-0.0122895
-0.01278
-0.0132446
-0.0136775
-0.0140732
-0.0144259
-0.0147297
-0.0149791
-0.0151686
-0.015293
-0.0153471
-0.0153262
-0.0152254
-0.0150402
-0.0147653
-0.0143965
-0.0139277
-0.0133529
-0.012665
-0.0118558
-0.0109152
-0.00983109
-0.00858977
-0.00717606
-0.00557303
-0.00376278
-0.00172694
0.000550809
0.00308609
0.00589139
0.00897493
0.0123417
0.0159911
0.019915
0.0240991
0.0285211
0.0331506
0.0379533
0.0428921
0.0479262
0.00099194
0.000982074
0.000978103
0.0009673
0.000953805
0.000932344
0.000906353
0.000870841
0.000828387
0.000774832
0.000711611
0.00063555
0.000547139
0.00044404
0.000326126
0.000191699
4.03587e-05
-0.000129111
-0.000317104
-0.000524438
-0.000751357
-0.000998287
-0.00126524
-0.00155227
-0.00185921
-0.00218572
-0.00253142
-0.00289578
-0.00327821
-0.00367806
-0.00409458
-0.00452701
-0.00497454
-0.00543635
-0.00591143
-0.00639881
-0.00689728
-0.00740553
-0.00792193
-0.00844468
-0.00897153
-0.00949996
-0.0100269
-0.0105491
-0.0110625
-0.0115631
-0.0120459
-0.012506
-0.0129383
-0.0133372
-0.0136971
-0.0140124
-0.0142776
-0.0144871
-0.0146356
-0.0147178
-0.0147288
-0.0146638
-0.0145179
-0.0142864
-0.0139644
-0.0135471
-0.0130287
-0.0124036
-0.0116643
-0.0108036
-0.00981162
-0.00867859
-0.00739295
-0.00594264
-0.00431398
-0.00249457
-0.000471828
0.00176432
0.00422234
0.00690775
0.0098227
0.0129656
0.0163301
0.0199069
0.0236782
0.0276229
0.0317147
0.0359215
0.0402152
0.0445627
0.000994181
0.000984478
0.000980458
0.000969683
0.000956146
0.000934667
0.000908596
0.000873008
0.000830427
0.000776745
0.000713361
0.00063714
0.000548552
0.000445288
0.000327219
0.000192674
4.12476e-05
-0.000128227
-0.000316155
-0.000523302
-0.000749901
-0.000996343
-0.00126261
-0.00154874
-0.00185446
-0.00217949
-0.00252332
-0.00288541
-0.0032651
-0.00366165
-0.00407429
-0.00450217
-0.00494434
-0.00539986
-0.00586768
-0.00634667
-0.00683544
-0.00733257
-0.00783631
-0.0083447
-0.00885533
-0.00936561
-0.00987239
-0.0103723
-0.0108613
-0.0113353
-0.0117896
-0.0122193
-0.0126192
-0.0129842
-0.0133086
-0.0135872
-0.0138146
-0.0139853
-0.0140943
-0.0141365
-0.0141071
-0.0140012
-0.0138143
-0.0135418
-0.0131789
-0.0127208
-0.0121622
-0.0114974
-0.0107202
-0.00982356
-0.00879933
-0.00763966
-0.00633465
-0.00487557
-0.00325248
-0.00145777
0.000516603
0.0026757
0.0050223
0.00755802
0.0102802
0.0131825
0.016257
0.019491
0.0228686
0.0263698
0.0299717
0.0336472
0.0373729
0.0411245
0.000996316
0.00098677
0.000982681
0.000971928
0.000958347
0.000936845
0.000910696
0.000875029
0.000832328
0.00077852
0.000714984
0.000638611
0.000549876
0.000446476
0.000328288
0.000193661
4.22205e-05
-0.000127193
-0.000314958
-0.000521816
-0.000747969
-0.000993763
-0.00125919
-0.00154419
-0.00184851
-0.00217177
-0.00251346
-0.00287296
-0.00324955
-0.00364244
-0.00405077
-0.00447358
-0.0049099
-0.00535861
-0.00581859
-0.00628853
-0.00676696
-0.00725234
-0.00774269
-0.00823601
-0.00872977
-0.00922124
-0.00970721
-0.0101843
-0.0106485
-0.0110956
-0.0115211
-0.0119203
-0.012288
-0.0126194
-0.012909
-0.0131518
-0.0133424
-0.0134759
-0.0135474
-0.013552
-0.0134852
-0.0133423
-0.013119
-0.012811
-0.0124138
-0.0119228
-0.0113332
-0.0106399
-0.00983761
-0.00892017
-0.00788109
-0.00671381
-0.00541121
-0.00396733
-0.00237596
-0.000632527
0.00126665
0.00332298
0.00553602
0.00790345
0.0104193
0.013076
0.0158635
0.0187694
0.0217787
0.0248732
0.0280334
0.0312379
0.0344661
0.0377005
0.000998339
0.000988938
0.000984763
0.000974032
0.000960401
0.000938873
0.000912639
0.000876897
0.000834074
0.000780156
0.000716476
0.000639974
0.000551103
0.000447597
0.000329331
0.000194684
4.32939e-05
-0.000125982
-0.000313486
-0.000519921
-0.000745497
-0.000990501
-0.00125488
-0.00153856
-0.00184123
-0.00216246
-0.0025017
-0.00285826
-0.00323139
-0.00362022
-0.00402377
-0.00444105
-0.00487098
-0.00531234
-0.00576387
-0.00622413
-0.00669162
-0.0071645
-0.00764089
-0.00811844
-0.00859469
-0.00906674
-0.00953141
-0.00998519
-0.0104242
-0.0108443
-0.011241
-0.0116097
-0.0119457
-0.012244
-0.0124995
-0.0127075
-0.0128629
-0.0129612
-0.0129974
-0.0129672
-0.0128665
-0.0126907
-0.0124358
-0.012098
-0.0116733
-0.0111573
-0.0105459
-0.0098349
-0.00901952
-0.00809498
-0.00705632
-0.00589831
-0.00461702
-0.0032083
-0.00166898
2.84616e-06
0.00180762
0.00374407
0.00580937
0.00799858
0.010304
0.0127179
0.0152294
0.0178265
0.0204957
0.0232212
0.0259871
0.0287758
0.0315702
0.0343564
0.00100024
0.000990965
0.000986706
0.000975985
0.000962297
0.000940741
0.000914419
0.000878604
0.000835668
0.000781636
0.000717829
0.00064122
0.000552234
0.00044866
0.000330364
0.000195757
4.44845e-05
-0.000124554
-0.00031169
-0.000517602
-0.000742437
-0.000986473
-0.00124961
-0.00153175
-0.0018325
-0.00215142
-0.00248788
-0.00284118
-0.00321045
-0.00359476
-0.0039931
-0.00440437
-0.00482734
-0.00526079
-0.00570325
-0.00615327
-0.00660912
-0.00706893
-0.00753063
-0.00799188
-0.00844998
-0.00890217
-0.00934507
-0.00977524
-0.0101888
-0.0105818
-0.0109499
-0.0112885
-0.0115932
-0.0118592
-0.0120818
-0.0122564
-0.0123785
-0.0124435
-0.0124472
-0.0123854
-0.0122543
-0.0120499
-0.0117686
-0.0114069
-0.0109612
-0.0104279
-0.00980351
-0.00908456
-0.00826712
-0.00734759
-0.00632264
-0.00518892
-0.00394416
-0.00258629
-0.00111434
0.000470793
0.00216809
0.00397404
0.00588411
0.0078921
0.00998985
0.0121695
0.0144203
0.016731
0.0190899
0.0214836
0.0238989