/*--------------------------------*- C++ -*----------------------------------*\
  =========                 |
  \\      /  F ield         | OpenFOAM: The Open Source CFD Toolbox
   \\    /   O peration     | Website:  https://openfoam.org
    \\  /    A nd           | Version:  9
     \\/     M anipulation  |
\*---------------------------------------------------------------------------*/
FoamFile
{
    format      ascii;
    class       surfaceScalarField;
    location    "1500";
    object      phi;
}
// * * * * * * * * * * * * * * * * * * * * * * * * * * * * * * * * * * * * * //

dimensions      [0 3 -1 0 0 0 0];

internalField   nonuniform List<scalar> 
26965
(
3.43598e-05
0.490511
-0.490546
3.41501e-05
0.46286
-0.46286
3.39242e-05
0.436695
-0.436695
3.36913e-05
0.411971
-0.411971
3.34534e-05
0.388689
-0.388689
3.32147e-05
0.366718
-0.366718
3.29727e-05
0.345953
-0.345953
6.73069e-05
0.326361
-0.326396
6.70674e-05
0.307908
-0.307908
3.22541e-05
0.290526
-0.290491
6.65965e-05
0.274041
-0.274075
6.63697e-05
0.258558
-0.258558
6.6147e-05
0.243905
-0.243905
0.000100516
0.230115
-0.23015
6.57332e-05
0.217121
-0.217086
8.62941e-05
0.204814
-0.204835
9.30365e-05
0.19323
-0.193237
9.63401e-05
0.182304
-0.182307
0.000106577
0.171989
-0.171999
0.00010992
0.162266
-0.162269
0.000120204
0.153086
-0.153096
0.000127053
0.144432
-0.144439
0.000133929
0.136266
-0.136273
0.000140834
0.128567
-0.128574
0.000154683
0.121297
-0.121311
0.000161648
0.114446
-0.114453
0.0001721
0.107983
-0.107993
0.00018605
0.101883
-0.101897
0.000196567
0.0961328
-0.0961434
0.000207123
0.090708
-0.0907185
0.000221175
0.0855911
-0.0856052
0.000235264
0.0807616
-0.0807757
0.000249391
0.0762124
-0.0762265
0.000263566
0.0719158
-0.07193
0.000281256
0.067865
-0.0678827
0.000299004
0.064046
-0.0640637
0.000316821
0.060445
-0.0604628
0.000334715
0.0570446
-0.0570625
0.000352704
0.0538381
-0.0538561
0.000374281
0.0508149
-0.0508365
0.000399472
0.0479613
-0.0479865
0.000421349
0.0452773
-0.0452992
0.000446899
0.0427386
-0.0427642
0.000476161
0.0403454
-0.0403746
0.000502203
0.0380906
-0.0381167
0.000532035
0.035964
-0.0359939
0.000562212
0.0339587
-0.0339889
0.000596267
0.0320678
-0.0321018
0.000630748
0.0302843
-0.0303187
0.000662196
0.0286048
-0.0286363
0.000701133
0.027019
-0.0270579
0.00073709
0.0255269
-0.0255629
0.000780608
0.0241145
-0.0241581
0.000817622
0.0227925
-0.0228296
0.000862225
0.0215374
-0.021582
0.000905521
0.0203606
-0.0204039
0.000950361
0.0192497
-0.0192946
0.00099591
0.0182036
-0.0182492
0.0010421
0.0172181
-0.0172643
0.0010884
0.0162902
-0.0163365
0.00113503
0.0154163
-0.0154629
0.001181
0.0145944
-0.0146403
0.00122642
0.0138212
-0.0138667
0.00126985
0.0130949
-0.0131383
0.00131185
0.0124125
-0.0124545
0.00135112
0.0117726
-0.0118118
0.00138617
0.0111743
-0.0112094
0.00141636
0.0106147
-0.0106449
0.00144035
0.0100943
-0.0101183
0.00145599
0.00961181
-0.00962744
0.00146055
0.00916728
-0.00917184
0.00145053
0.00876074
-0.00875073
0.00141998
0.00839263
-0.00836207
0.00136421
0.00806493
-0.00800917
0.0012739
0.00779399
-0.00770368
0.00112919
0.00758746
-0.00744275
0.000858581
0.00737194
-0.00710133
0.000328954
0.00690665
-0.00637702
-0.000573565
0.00582258
-0.00492006
-0.0016103
0.00351228
-0.00247554
-0.00239728
0.000378066
0.000408906
-0.00284772
-0.00141695
0.0018674
-0.00285682
-0.0021717
0.0021808
-0.00261611
-0.00255504
0.00231433
-0.0021668
-0.00251885
0.00206955
-0.00201296
0.00134604
3.43558e-05
0.490477
3.41434e-05
0.46286
3.39131e-05
0.436695
3.36752e-05
0.411971
3.34336e-05
0.38869
6.77622e-05
0.366684
6.7517e-05
0.345953
3.26978e-05
0.326396
3.24524e-05
0.307908
6.67864e-05
0.290491
6.65475e-05
0.274041
6.6316e-05
0.258559
6.60909e-05
0.243905
6.58747e-05
0.230115
0.000100251
0.217086
8.27676e-05
0.204832
8.60481e-05
0.193227
9.6263e-05
0.182293
9.95829e-05
0.171986
0.000109839
0.162256
0.000113207
0.153083
0.000120053
0.144425
0.000126933
0.136259
0.000137295
0.128557
0.000144234
0.12129
0.000154664
0.114436
0.000165124
0.107973
0.000175621
0.101873
0.000186153
0.0961223
0.00020018
0.0906939
0.000210784
0.0855805
0.000224892
0.0807475
0.000239046
0.0761982
0.000253242
0.0719016
0.000267494
0.0678507
0.000285273
0.0640282
0.000306595
0.0604236
0.000324531
0.0570267
0.000342564
0.05382
0.00036419
0.0507933
0.000382479
0.047943
0.00040789
0.0452519
0.000433502
0.042713
0.00045586
0.040323
0.000481967
0.0380645
0.000508378
0.0359376
0.000538627
0.0339285
0.000569264
0.0320371
0.00060032
0.0302532
0.000635341
0.0285698
0.000670846
0.0269835
0.000706885
0.0254909
0.000739921
0.0240815
0.000780495
0.022752
0.000819851
0.0214981
0.000860443
0.02032
0.00090144
0.0192087
0.000943182
0.0181619
0.000985542
0.0171757
0.00102808
0.0162477
0.00106997
0.0153744
0.00111161
0.0145527
0.00115206
0.0137808
0.00119179
0.0130552
0.00122898
0.0123753
0.00126355
0.011738
0.00129512
0.0111427
0.00132191
0.0105879
0.00134374
0.0100724
0.00135856
0.00959698
0.00136513
0.00916071
0.00136031
0.00876557
0.00134086
0.00841208
0.00130161
0.00810418
0.00123976
0.00785584
0.0011442
0.00768302
0.000971857
0.00754428
0.000614714
0.00726379
-7.50288e-05
0.00651232
-0.00118739
0.00462464
-0.00236455
0.00155523
-0.00298449
-0.000797012
-0.00319546
-0.00196072
-0.00319338
-0.00255712
-0.00300606
-0.00270618
-0.00241005
3.43518e-05
0.490443
3.41341e-05
0.46286
3.38982e-05
0.436696
3.36547e-05
0.411972
3.34074e-05
0.38869
3.31586e-05
0.366684
3.29063e-05
0.345953
6.72303e-05
0.326362
6.69789e-05
0.307909
6.67316e-05
0.290492
6.64889e-05
0.274041
6.62477e-05
0.258559
6.6017e-05
0.243905
6.57929e-05
0.230116
6.55843e-05
0.217087
8.26784e-05
0.204815
8.94131e-05
0.19322
9.27072e-05
0.18229
9.94829e-05
0.171979
0.000102822
0.162252
0.000113101
0.153072
0.000119954
0.144418
0.000126828
0.136252
0.0001372
0.128546
0.00014414
0.121283
0.000154578
0.114425
0.000165046
0.107962
0.000172092
0.101866
0.000186097
0.0961083
0.000193219
0.0906868
0.000210767
0.085563
0.000221433
0.0807368
0.000235609
0.0761841
0.000249838
0.0718874
0.000264121
0.0678364
0.000281938
0.0640104
0.000296358
0.0604092
0.000314337
0.0570087
0.000335892
0.0537985
0.000354096
0.0507751
0.00037592
0.0479212
0.000397917
0.0452299
0.000420113
0.0426908
0.000446029
0.0402971
0.000468729
0.0380418
0.00049871
0.0359076
0.000525556
0.0339016
0.000552782
0.0320099
0.000583932
0.0302221
0.000615546
0.0285382
0.000647655
0.0269514
0.00068025
0.0254583
0.000716907
0.0240448
0.000754108
0.0227148
0.000789701
0.0214625
0.000827182
0.0202825
0.000865479
0.0191704
0.000904537
0.0181228
0.000943171
0.0171371
0.000981666
0.0162092
0.00102056
0.0153355
0.0010583
0.014515
0.00109541
0.0137437
0.00113056
0.01302
0.00116406
0.0123418
0.0011953
0.0117067
0.0012235
0.0111145
0.00124811
0.0105633
0.00126847
0.0100521
0.00128347
0.00958199
0.00129176
0.00915242
0.00129245
0.00876487
0.00128365
0.00842088
0.00126242
0.00812541
0.00122975
0.00788851
0.001184
0.00772878
0.00110335
0.00762493
0.000909345
0.0074578
0.000455859
0.00696581
-0.000534059
0.00561456
-0.00198757
0.00300874
-0.00286437
7.9789e-05
-0.00319453
-0.00163057
-0.00330275
-0.0024489
-0.00326767
-0.00274125
-0.0025944
3.43472e-05
0.490408
3.41226e-05
0.462861
6.84462e-05
0.436661
3.36297e-05
0.412007
6.79453e-05
0.388656
3.3119e-05
0.366719
6.74342e-05
0.345919
3.26008e-05
0.326397
3.23441e-05
0.307909
6.66638e-05
0.290457
3.18342e-05
0.274076
6.61681e-05
0.258524
6.59285e-05
0.243905
6.57005e-05
0.230116
6.54807e-05
0.217087
8.2569e-05
0.204798
8.58428e-05
0.193217
9.2594e-05
0.182283
9.93631e-05
0.171972
0.000106159
0.162246
0.00011298
0.153066
0.000119826
0.144411
0.000126709
0.136245
0.00013362
0.128539
0.000144025
0.121273
0.000151005
0.114418
0.000161486
0.107952
0.000172002
0.101855
0.000182561
0.0960978
0.000196625
0.0906727
0.000207268
0.0855523
0.000217957
0.0807261
0.000232163
0.0761699
0.000249887
0.0718697
0.000264206
0.0678221
0.000278594
0.063996
0.000296531
0.0603913
0.000314559
0.0569907
0.000332697
0.0537803
0.000350961
0.0507568
0.000372852
0.0478993
0.000394921
0.0452078
0.000417199
0.0426685
0.000439713
0.0402746
0.000465995
0.0380155
0.000489102
0.0358845
0.00051604
0.0338747
0.000546874
0.0319791
0.000574645
0.0301943
0.000602868
0.02851
0.000635091
0.0269192
0.000671351
0.025422
0.000704621
0.0240116
0.000734928
0.0226845
0.000770654
0.0214268
0.000806217
0.020247
0.000841878
0.0191348
0.000877574
0.0180871
0.000913624
0.017101
0.000949946
0.0161729
0.0009849
0.0153005
0.00101926
0.0144806
0.00105267
0.0137103
0.00108499
0.0129877
0.00111539
0.0123114
0.00114351
0.0116786
0.00116952
0.0110885
0.0011923
0.0105405
0.00121159
0.0100328
0.00122701
0.00956656
0.00123825
0.00914118
0.00124491
0.00875821
0.00124581
0.00841999
0.00124158
0.00812963
0.00123399
0.0078961
0.00122764
0.00773513
0.00121479
0.00763778
0.00114898
0.00752361
0.00091023
0.00720456
0.000233425
0.00629136
-0.00111365
0.00435581
-0.00244698
0.00141312
-0.00305548
-0.00102206
-0.00332502
-0.00217936
-0.00339228
-0.002674
-0.00266599
-2.18693e-07
0.490408
3.41087e-05
0.462826
3.38584e-05
0.436662
3.35996e-05
0.412007
3.33375e-05
0.388656
6.76447e-05
0.366685
3.28052e-05
0.345954
6.7114e-05
0.326362
6.68472e-05
0.307909
3.2008e-05
0.290492
6.63249e-05
0.274042
6.60709e-05
0.258525
6.58233e-05
0.243906
6.55876e-05
0.230116
9.9946e-05
0.217052
8.24477e-05
0.204815
8.91684e-05
0.19321
9.24526e-05
0.18228
9.92204e-05
0.171965
0.000106013
0.162239
0.000112829
0.153059
0.000119681
0.144405
0.000130018
0.136235
0.000136936
0.128532
0.000143885
0.121266
0.000154334
0.114408
0.000164825
0.107941
0.000175357
0.101845
0.000185932
0.0960872
0.000196549
0.0906621
0.000207215
0.0855417
0.000224862
0.0807085
0.000239095
0.0761556
0.000249924
0.0718588
0.000267751
0.0678043
0.000282183
0.0639815
0.00030017
0.0603733
0.000318256
0.0569726
0.000336456
0.0537621
0.000354789
0.0507385
0.000376757
0.0478773
0.00039543
0.0451891
0.000417796
0.0426462
0.000443895
0.0402485
0.000466792
0.0379926
0.000493498
0.0358578
0.000520576
0.0338476
0.000544555
0.0319551
0.000575958
0.0301629
0.000604337
0.0284816
0.000633218
0.0268903
0.000662625
0.0253926
0.000696074
0.0239781
0.000730029
0.0226505
0.000762109
0.0213947
0.000795397
0.0202137
0.000829149
0.019101
0.000862644
0.0180536
0.000896181
0.0170675
0.000929286
0.0161397
0.000961552
0.0152683
0.000993547
0.0144486
0.00102448
0.0136793
0.00105352
0.0129587
0.00108117
0.0122838
0.00110701
0.0116528
0.00113084
0.0110647
0.00115231
0.0105191
0.00117123
0.0100139
0.00118802
0.00954978
0.00120216
0.00912704
0.00121402
0.00874635
0.00122416
0.00840984
0.00123434
0.00811945
0.00124696
0.00788348
0.00127039
0.00771171
0.00130594
0.00760222
0.00132745
0.0075021
0.00125514
0.00727687
0.000887537
0.00665896
-5.81554e-05
0.0053015
-0.0015976
0.00295257
-0.00267263
5.29611e-05
-0.00312682
-0.00172517
-0.00331858
-0.00248224
-0.00264192
3.43346e-05
0.490374
3.40929e-05
0.462827
3.38326e-05
0.436662
6.81339e-05
0.411972
3.32928e-05
0.388691
3.30196e-05
0.366685
3.27427e-05
0.345954
3.24663e-05
0.326363
6.67645e-05
0.307875
6.64925e-05
0.290492
6.62232e-05
0.274042
6.59599e-05
0.258525
6.57056e-05
0.243906
0.00010004
0.230082
6.52263e-05
0.217087
8.57559e-05
0.204795
8.90169e-05
0.193207
9.57568e-05
0.182273
0.000102517
0.171959
0.000109302
0.162232
0.000116119
0.153052
0.000126423
0.144394
0.000133308
0.136228
0.000140226
0.128526
0.000150646
0.121256
0.000161102
0.114398
0.000168143
0.107934
0.000182148
0.101831
0.000189278
0.09608
0.000203382
0.090648
0.000217538
0.0855275
0.000228283
0.0806977
0.000242553
0.0761414
0.000256885
0.0718445
0.000271288
0.0677899
0.000289238
0.0639636
0.000307281
0.0603553
0.000325429
0.0569545
0.000343698
0.0537439
0.000365584
0.0507166
0.00038416
0.0478587
0.000406406
0.0451669
0.000428876
0.0426237
0.000448121
0.0402292
0.000474624
0.0379661
0.000501464
0.035831
0.000525187
0.0338239
0.000556301
0.031924
0.000580885
0.0301383
0.000609427
0.028453
0.000641989
0.0268577
0.000671584
0.025363
0.000698194
0.0239515
0.000732424
0.0226163
0.000762967
0.0213641
0.00079473
0.0201819
0.000826306
0.0190694
0.000858017
0.0180219
0.000889417
0.0170361
0.000920082
0.0161091
0.000950405
0.0152379
0.000979494
0.0144195
0.00100762
0.0136512
0.00103441
0.0129319
0.00105981
0.0122584
0.00108371
0.0116289
0.00110552
0.0110429
0.00112618
0.0104984
0.00114498
0.00999507
0.00116253
0.00953223
0.00117896
0.00911061
0.00119562
0.00872968
0.00121383
0.00839164
0.00123514
0.00809814
0.00126471
0.00785391
0.0013097
0.00766672
0.0013773
0.00753461
0.00145648
0.00742292
0.0014959
0.00723746
0.00135905
0.00679581
0.000821145
0.00583941
-0.000355368
0.00412908
-0.00186787
0.00156546
-0.00272838
-0.000864665
-0.00310585
-0.00210476
-0.00251794
3.43265e-05
0.49034
3.40744e-05
0.462827
3.38037e-05
0.436662
3.35258e-05
0.411973
3.32431e-05
0.388691
3.29595e-05
0.366685
6.72441e-05
0.34592
6.69582e-05
0.326363
3.20954e-05
0.30791
6.63886e-05
0.290458
6.61067e-05
0.274043
6.5835e-05
0.258525
6.55682e-05
0.243906
6.53142e-05
0.230082
9.96525e-05
0.217053
8.90518e-05
0.204805
9.57607e-05
0.1932
0.000102491
0.182267
0.000109245
0.171952
0.000116029
0.162225
0.000122844
0.153045
0.000129691
0.144387
0.000136574
0.136221
0.000146955
0.128515
0.000157377
0.121245
0.000164385
0.114391
0.000178358
0.10792
0.000185458
0.101823
0.000202992
0.0960625
0.000213656
0.0906374
0.000224378
0.0855168
0.00023862
0.0806835
0.000252926
0.076127
0.00027077
0.0718267
0.000285222
0.0677754
0.000303231
0.0639456
0.000317866
0.0603406
0.000336082
0.0569362
0.000357902
0.0537221
0.000376399
0.0506981
0.000398546
0.0478366
0.000420897
0.0451445
0.00044348
0.0426011
0.000466331
0.0402064
0.000492978
0.0379395
0.000516474
0.0358075
0.000543843
0.0337965
0.000568141
0.0318997
0.000596397
0.03011
0.000625139
0.0284243
0.000650919
0.026832
0.000680701
0.0253332
0.00071461
0.0239176
0.000742044
0.0225888
0.000772493
0.0213337
0.000802416
0.020152
0.000832569
0.0190393
0.0008625
0.017992
0.000891857
0.0170067
0.000920547
0.0160804
0.000948577
0.0152099
0.000975842
0.0143923
0.00100164
0.0136254
0.00102633
0.0129072
0.00104982
0.0122349
0.00107196
0.0116067
0.00109261
0.0110223
0.00111224
0.0104788
0.00113064
0.00997667
0.00114882
0.00951404
0.00116804
0.0090914
0.0011887
0.00870903
0.00121282
0.00836752
0.00124312
0.00806784
0.00128455
0.00781248
0.00134467
0.00760659
0.00143259
0.00744669
0.00154474
0.00731077
0.00165049
0.00713171
0.00166164
0.00678466
0.00141355
0.00608751
0.000686131
0.00485649
-0.00068952
0.00294111
-0.00203043
0.00047624
-0.00267487
-0.00146031
-0.00220916
6.88779e-05
0.490271
3.40532e-05
0.462862
3.37712e-05
0.436662
3.34811e-05
0.411973
6.77571e-05
0.388657
6.74621e-05
0.366686
6.71626e-05
0.34592
6.68647e-05
0.326363
6.65671e-05
0.30791
6.62709e-05
0.290458
6.59792e-05
0.274043
6.56915e-05
0.258526
9.99961e-05
0.243872
9.97298e-05
0.230082
6.48956e-05
0.217088
9.5785e-05
0.204774
0.000102485
0.193194
0.000109208
0.18226
0.000112497
0.171949
0.000122736
0.162215
0.000129544
0.153038
0.00013639
0.144381
0.000146734
0.136211
0.000157119
0.128505
0.000167548
0.121235
0.000178024
0.11438
0.00018509
0.107913
0.000202594
0.101806
0.000209765
0.0960553
0.000223917
0.0906232
0.000241595
0.0854991
0.000252409
0.0806727
0.000270225
0.0761092
0.000284648
0.0718122
0.000302625
0.0677575
0.000317224
0.063931
0.000338869
0.060319
0.000357164
0.0569179
0.000375597
0.0537036
0.000397664
0.050676
0.000416439
0.0478178
0.000438904
0.0451221
0.000461617
0.0425784
0.000488091
0.0401799
0.000511395
0.0379162
0.000535061
0.0357838
0.000562608
0.033769
0.000590585
0.0318717
0.00061904
0.0300816
0.000648008
0.0283953
0.000673998
0.026806
0.00070408
0.0253031
0.000731195
0.0238905
0.000762421
0.0225576
0.000790022
0.0213061
0.000819241
0.0201228
0.000847984
0.0190105
0.000876186
0.0179638
0.000903864
0.0169791
0.00093064
0.0160536
0.00095679
0.0151838
0.00098164
0.0143674
0.00100519
0.0136018
0.00102803
0.0128843
0.00104982
0.0122131
0.00106989
0.0115867
0.00108962
0.0110025
0.00110832
0.0104601
0.00112733
0.00995767
0.00114623
0.00949514
0.00116671
0.00907092
0.00119049
0.00868524
0.00121958
0.00833842
0.00125647
0.00803096
0.0013062
0.00776274
0.00137619
0.00753661
0.00147304
0.00734984
0.00160073
0.00718308
0.00174026
0.00699219
0.00183249
0.00669242
0.00176705
0.00615294
0.00137507
0.00524847
0.000460267
0.00385592
-0.00101947
0.00195597
-0.00213488
-0.000344898
-0.00172523
3.43071e-05
0.490237
6.85943e-05
0.462827
6.83011e-05
0.436663
6.80005e-05
0.411973
3.3124e-05
0.388692
6.73855e-05
0.366651
3.25006e-05
0.345955
6.6763e-05
0.326329
6.64507e-05
0.30791
6.61413e-05
0.290459
0.000100413
0.274009
0.000100115
0.258526
6.52429e-05
0.243907
6.49656e-05
0.230083
9.92846e-05
0.217053
0.000102494
0.204771
0.000109185
0.193187
0.000115899
0.182253
0.000126102
0.171938
0.000129411
0.162212
0.000139682
0.153028
0.000149983
0.14437
0.000160329
0.136201
0.000167258
0.128498
0.000177698
0.121224
0.000188184
0.11437
0.000202188
0.107899
0.000212783
0.101795
0.000226903
0.0960412
0.000241085
0.090609
0.000255335
0.0854849
0.000273118
0.0806549
0.000287512
0.0760948
0.000301992
0.0717978
0.000320024
0.0677394
0.000341631
0.0639094
0.000356411
0.0603042
0.000378262
0.0568961
0.000396789
0.0536851
0.00041896
0.0506539
0.000444806
0.047792
0.000467401
0.0450995
0.00049025
0.0425556
0.000516879
0.0401533
0.000540352
0.0378927
0.000567685
0.0357565
0.000591932
0.0337447
0.000620135
0.0318435
0.00064531
0.0300564
0.000674525
0.0283661
0.000704269
0.0267762
0.00073111
0.0252763
0.000758532
0.0238631
0.000786541
0.0225296
0.000815879
0.0212768
0.000843373
0.0200953
0.000870742
0.0189832
0.000897303
0.0179372
0.00092335
0.016953
0.00094821
0.0160288
0.00097253
0.0151594
0.000995309
0.0143446
0.00101766
0.0135795
0.00103865
0.0128634
0.00105843
0.0121933
0.00107724
0.0115679
0.00109584
0.0109839
0.00111387
0.010442
0.00113251
0.00993902
0.00115237
0.00947528
0.00117433
0.00904896
0.00120014
0.00865943
0.00123226
0.0083063
0.00127377
0.00798945
0.00132853
0.00770799
0.00140254
0.0074626
0.00150338
0.00724901
0.00163372
0.00705274
0.00178318
0.00684272
0.00191578
0.00655982
0.00195115
0.00611758
0.00177411
0.00542551
0.00123752
0.00439251
0.000215055
0.00297843
-0.00122359
0.00109375
-0.000815426
3.42955e-05
0.490202
3.40036e-05
0.462828
3.36939e-05
0.436663
3.33764e-05
0.411974
6.76241e-05
0.388657
3.27294e-05
0.366686
6.69743e-05
0.345921
6.66472e-05
0.326329
6.632e-05
0.307911
6.59959e-05
0.290459
6.56765e-05
0.274009
6.53617e-05
0.258526
9.96376e-05
0.243872
9.93457e-05
0.230083
9.90675e-05
0.217054
0.000109185
0.204761
0.000119324
0.193177
0.000126026
0.182247
0.000132762
0.171932
0.00014299
0.162201
0.000149787
0.153021
0.000160095
0.14436
0.000170438
0.13619
0.000184293
0.128484
0.000191277
0.121217
0.00020524
0.114356
0.000219257
0.107885
0.000229876
0.101785
0.000247487
0.0960236
0.000261701
0.0905948
0.000275986
0.0854706
0.00029035
0.0806405
0.000308262
0.0760769
0.000326262
0.0717798
0.000347831
0.0677179
0.000362575
0.0638946
0.000387849
0.0602789
0.000406324
0.0568776
0.000428429
0.053663
0.000454193
0.0506281
0.000473214
0.047773
0.000499428
0.0450733
0.000522437
0.0425325
0.000545744
0.04013
0.000572886
0.0378656
0.000600411
0.035729
0.000628367
0.0337168
0.000653301
0.0318186
0.000682227
0.0300275
0.000708183
0.0283402
0.000738234
0.0267462
0.000765346
0.0252492
0.000793078
0.0238353
0.00082145
0.0225012
0.000847977
0.0212502
0.000874844
0.0200684
0.000900877
0.0189571
0.000926149
0.0179119
0.00095025
0.0169289
0.000974008
0.016005
0.000995901
0.0151375
0.00101738
0.0143232
0.00103758
0.0135593
0.00105672
0.0128442
0.00107484
0.0121752
0.00109284
0.0115499
0.00110984
0.0109669
0.00112715
0.0104247
0.00114542
0.00992075
0.00116553
0.00945517
0.0011883
0.00902618
0.00121593
0.00863181
0.00124985
0.00827238
0.00129347
0.00794582
0.00135035
0.00765111
0.00142544
0.0073875
0.00152436
0.00715008
0.00164981
0.00692729
0.00179634
0.00669619
0.0019379
0.00641826
0.00202351
0.00603197
0.00197125
0.00547777
0.00167389
0.00468988
0.00102337
0.00362895
-0.000107136
0.00222425
0.000470776
3.42827e-05
0.490168
3.39747e-05
0.462828
6.82158e-05
0.436629
6.78846e-05
0.411974
6.75475e-05
0.388658
6.7208e-05
0.366687
6.68646e-05
0.345921
6.6523e-05
0.32633
0.000100754
0.307876
0.000100415
0.290459
0.000100079
0.274009
9.97524e-05
0.258526
9.94338e-05
0.243873
0.000133707
0.230049
0.000133416
0.217054
0.000122771
0.204772
0.000129437
0.19317
0.000136135
0.18224
0.000146316
0.171922
0.000156534
0.162191
0.000166794
0.153011
0.000177097
0.14435
0.000187446
0.13618
0.000197845
0.128474
0.00021176
0.121203
0.000225736
0.114342
0.00023631
0.107874
0.000253876
0.101767
0.000264588
0.0960129
0.000282299
0.0905771
0.000300089
0.0854528
0.000317966
0.0806227
0.000335934
0.076059
0.000357467
0.0717582
0.000375643
0.0676997
0.000397405
0.0638729
0.000415833
0.0602605
0.000441353
0.0568521
0.000463574
0.0536408
0.000485988
0.0506057
0.000512104
0.0477468
0.000534991
0.0450504
0.000561645
0.0425059
0.000588626
0.040103
0.000615966
0.0378382
0.000640225
0.0357047
0.000668408
0.0336886
0.000697067
0.0317899
0.00072277
0.0300018
0.000752519
0.0283104
0.000779344
0.0267193
0.000806791
0.0252217
0.000834886
0.0238072
0.000860105
0.022476
0.000887373
0.021223
0.00091286
0.0200429
0.000937276
0.0189327
0.000961288
0.0178879
0.000983946
0.0169063
0.00100575
0.0159832
0.00102632
0.015117
0.00104588
0.0143036
0.00106414
0.013541
0.00108141
0.0128269
0.00109842
0.0121582
0.00111435
0.0115339
0.00113049
0.0109508
0.00114726
0.010408
0.00116484
0.00990317
0.00118438
0.00943563
0.00120768
0.00900289
0.00123566
0.00860382
0.00127064
0.00823741
0.00131498
0.00790149
0.0013714
0.00759469
0.00144462
0.00731429
0.00153822
0.00705648
0.00165444
0.00681107
0.00178887
0.00656176
0.00192723
0.00627991
0.00202996
0.00592923
0.00204379
0.00546394
0.00189088
0.00484278
0.00148914
0.00403069
0.000734197
0.0029792
0.00164918
6.8829e-05
0.490099
6.85073e-05
0.462828
3.35994e-05
0.436664
6.78172e-05
0.41194
6.74627e-05
0.388658
6.71069e-05
0.366687
0.00010132
0.345887
6.63843e-05
0.326364
6.6022e-05
0.307877
0.000100242
0.290425
9.98884e-05
0.27401
9.95422e-05
0.258527
0.000133785
0.243839
9.88846e-05
0.230084
0.000133161
0.21702
0.000132874
0.204772
0.000139531
0.193164
0.000153129
0.182226
0.000159845
0.171915
0.00017006
0.162181
0.000180313
0.153001
0.00019407
0.144336
0.000204422
0.136169
0.000218287
0.12846
0.000232216
0.121189
0.000246203
0.114328
0.000260262
0.10786
0.000274392
0.101753
0.000295519
0.0959918
0.000309808
0.0905628
0.000327647
0.085435
0.000349039
0.0806013
0.000367068
0.0760409
0.000388673
0.0717366
0.000406928
0.0676814
0.00043225
0.0638476
0.000454248
0.0602385
0.000476411
0.0568299
0.000502229
0.053615
0.000524784
0.0505831
0.000551045
0.0477206
0.000577579
0.0450238
0.000607892
0.0424756
0.000635068
0.0400758
0.000659142
0.0378142
0.000690602
0.0356733
0.000715551
0.0336636
0.000744485
0.031761
0.00077395
0.0299723
0.000800517
0.0282838
0.00082766
0.0266922
0.000855445
0.025194
0.00088039
0.0237823
0.000905992
0.0224504
0.000932651
0.0211963
0.000956826
0.0200188
0.000980322
0.0189092
0.0010024
0.0178659
0.00102348
0.0168852
0.00104324
0.0159634
0.00106238
0.0150978
0.00108004
0.0142859
0.00109646
0.0135246
0.0011124
0.012811
0.00112726
0.0121433
0.00114234
0.0115189
0.00115702
0.0109361
0.00117256
0.0103924
0.00118926
0.00988647
0.00120873
0.00941616
0.00123132
0.0089803
0.00125896
0.00857618
0.00129372
0.00820265
0.00133691
0.0078583
0.00139158
0.00754002
0.00146033
0.00724554
0.00154625
0.00697055
0.00165074
0.00670659
0.00177148
0.00644102
0.00189609
0.0061553
0.00199987
0.00582545
0.00204399
0.00541983
0.00197461
0.00491216
0.00173265
0.00427266
0.00124111
0.00347073
0.00247158
3.42532e-05
0.490065
6.84721e-05
0.462794
6.81131e-05
0.436664
6.77455e-05
0.41194
6.73715e-05
0.388658
0.000101568
0.366653
6.66152e-05
0.345922
0.000100811
0.32633
0.000100431
0.307877
0.000100054
0.290426
9.96818e-05
0.27401
0.000133897
0.258493
9.89646e-05
0.243873
0.000133204
0.230049
0.000132882
0.21702
0.000149873
0.204755
0.000159972
0.193154
0.000166645
0.18222
0.000180269
0.171901
0.000190474
0.162171
0.000204185
0.152987
0.000211023
0.144329
0.000228297
0.136152
0.000242169
0.128446
0.000256105
0.121176
0.000270109
0.114314
0.000287651
0.107843
0.000305271
0.101735
0.000322977
0.0959741
0.000344232
0.0905416
0.000362117
0.0854171
0.000380108
0.0805833
0.00040167
0.0760194
0.00042335
0.071715
0.000448626
0.0676561
0.000470579
0.0638256
0.000496158
0.0602129
0.000521914
0.0568042
0.00054787
0.053589
0.000574049
0.050557
0.000600481
0.0476941
0.000630673
0.0449937
0.000654228
0.042452
0.000685103
0.0400449
0.000712883
0.0377864
0.000741101
0.035645
0.000769802
0.0336349
0.000795522
0.0317352
0.000825298
0.0299425
0.000852162
0.028257
0.000879659
0.0266647
0.000907825
0.0251658
0.000936634
0.0237535
0.000959133
0.0224279
0.000983413
0.021172
0.0010063
0.0199959
0.00102819
0.0188873
0.00104911
0.0178449
0.00106869
0.0168656
0.00108667
0.0159455
0.00110346
0.015081
0.00111937
0.01427
0.0011341
0.0135099
0.00114786
0.0127972
0.00116151
0.0121297
0.00117418
0.0115062
0.00118772
0.0109226
0.00120192
0.0103782
0.00121816
0.00987023
0.00123634
0.00939799
0.00125852
0.00895812
0.001285
0.0085497
0.00131766
0.00816999
0.00135898
0.00781697
0.00141054
0.00748846
0.00147401
0.00718208
0.00155096
0.0068936
0.00164322
0.00661433
0.00174732
0.00633692
0.00185509
0.00604752
0.00195092
0.00572962
0.002005
0.00536575
0.00198337
0.00493379
0.00183965
0.00441637
0.00152241
0.00378797
0.00302334
6.87966e-05
0.489996
6.8434e-05
0.462794
6.80543e-05
0.436664
6.76664e-05
0.411941
0.000101843
0.388624
6.68765e-05
0.366688
0.000101048
0.345888
0.000100649
0.326331
0.000100249
0.307877
9.98517e-05
0.290426
0.000134036
0.273976
0.000133653
0.258493
0.00013328
0.243874
0.000132923
0.23005
0.000132581
0.21702
0.000163389
0.204724
0.000173476
0.193143
0.000187051
0.182206
0.000197207
0.171891
0.000210864
0.162157
0.000221108
0.152977
0.000238327
0.144312
0.00025214
0.136138
0.000266024
0.128432
0.000283433
0.121158
0.00030092
0.114296
0.000318483
0.107825
0.000339596
0.101714
0.00035734
0.0959563
0.000375177
0.0905237
0.000396586
0.0853957
0.000421566
0.0805583
0.000446669
0.0759943
0.000468433
0.0716932
0.000493807
0.0676308
0.000519335
0.0638001
0.000545036
0.0601872
0.000570926
0.0567783
0.000600502
0.0535594
0.000626846
0.0505306
0.000656932
0.0476641
0.000683844
0.0449667
0.000714569
0.0424213
0.000742184
0.0400173
0.000773698
0.0377549
0.000798703
0.03562
0.000831172
0.0336025
0.0008607
0.0317057
0.000887304
0.0299159
0.000914508
0.0282298
0.000942342
0.0266369
0.000967356
0.0251408
0.00099308
0.0237278
0.00101955
0.0224014
0.00103937
0.0211522
0.00106134
0.0199739
0.00108165
0.018867
0.00110027
0.0178263
0.00111801
0.0168479
0.00113463
0.0159288
0.0011493
0.0150664
0.00116304
0.0142563
0.00117582
0.0134971
0.00118801
0.0127851
0.0011993
0.0121184
0.00121117
0.0114943
0.00122278
0.0109109
0.00123525
0.0103658
0.0012494
0.00985608
0.0012665
0.00938088
0.00128672
0.0089379
0.00131196
0.00852446
0.0013431
0.00813885
0.00138109
0.00777899
0.00142746
0.00744209
0.00148424
0.0071253
0.00155269
0.00682515
0.00163097
0.00653605
0.00171912
0.00624877
0.00181058
0.00595606
0.00189226
0.00564794
0.00194865
0.00530936
0.00194934
0.0049331
0.00186589
0.00449982
0.00166024
0.00399362
0.00339537
6.87784e-05
0.489927
6.83928e-05
0.462795
0.000102558
0.43663
0.00010215
0.411941
6.71644e-05
0.388659
0.000101318
0.366654
0.000100896
0.345888
0.000100474
0.326331
0.000134626
0.307843
0.000134209
0.290426
0.000133796
0.273976
0.000133393
0.258493
0.000167577
0.24384
0.000167199
0.23005
0.000201426
0.216986
0.0001838
0.204742
0.000197326
0.19313
0.000207432
0.182196
0.000221036
0.171877
0.000234685
0.162144
0.000248385
0.152963
0.0002656
0.144295
0.000279424
0.136125
0.00029677
0.128415
0.000314197
0.121141
0.0003317
0.114279
0.000356219
0.107801
0.000373904
0.101697
0.00039515
0.0959351
0.000416503
0.0905024
0.000441432
0.0853707
0.000466483
0.0805332
0.000488201
0.0759725
0.000516992
0.0716644
0.000542469
0.0676053
0.000568115
0.0637744
0.000597415
0.0601579
0.000626923
0.0567488
0.000653186
0.0535332
0.000686649
0.0504971
0.000713453
0.0476373
0.000744049
0.0449361
0.000774998
0.0423904
0.000802861
0.0399895
0.000834643
0.0377231
0.000866887
0.0355878
0.000892677
0.0335767
0.0009225
0.0316759
0.000952924
0.0298855
0.000980476
0.0282022
0.00100523
0.0266121
0.00103063
0.0251154
0.00105323
0.0237052
0.00107659
0.0223781
0.00110039
0.0211284
0.00112043
0.0199539
0.00113912
0.0188483
0.00115632
0.0178091
0.00117188
0.0168323
0.00118588
0.0159148
0.00119891
0.0150533
0.00121065
0.0142446
0.00122126
0.0134865
0.00123116
0.0127752
0.00124068
0.0121088
0.00124989
0.0114851
0.00126013
0.0109007
0.00127133
0.0103546
0.0012836
0.00984381
0.00129888
0.0093656
0.00131717
0.00891961
0.00133965
0.00850198
0.00136718
0.00811132
0.00140169
0.00774447
0.00144311
0.00740067
0.00149291
0.0070755
0.00155102
0.00676704
0.00161796
0.0064691
0.00169076
0.00617598
0.00176543
0.00588139
0.00183423
0.00557914
0.00188191
0.00526167
0.00189452
0.0049205
0.00184606
0.00454828
0.00171162
0.00412807
0.00364712
0.000103319
0.489824
0.000102913
0.462795
0.00010249
0.436631
0.000102059
0.411941
0.00010162
0.38866
0.000135752
0.36662
0.000135307
0.345889
0.000134862
0.326332
0.000134417
0.307844
0.000133974
0.290427
0.000133537
0.273977
0.000167688
0.258459
0.000167273
0.24384
0.000201457
0.230016
0.000166494
0.217021
0.000207644
0.204701
0.000217698
0.19312
0.000231246
0.182182
0.000244839
0.171864
0.000258477
0.16213
0.000279094
0.152942
0.000292853
0.144281
0.000310135
0.136107
0.000330954
0.128394
0.000351854
0.12112
0.000372848
0.114258
0.000390467
0.107783
0.000415116
0.101672
0.000436407
0.0959138
0.000464745
0.090474
0.00048974
0.0853457
0.000514868
0.0805081
0.000543604
0.0759438
0.000569029
0.071639
0.000598088
0.0675762
0.000630797
0.0637417
0.00066024
0.0601285
0.000689905
0.0567191
0.000719815
0.0535032
0.000749999
0.050467
0.000783958
0.0476033
0.000814779
0.0449053
0.000845976
0.0423592
0.000877582
0.0399579
0.000906143
0.0376945