/*--------------------------------*- C++ -*----------------------------------*\
  =========                 |
  \\      /  F ield         | OpenFOAM: The Open Source CFD Toolbox
   \\    /   O peration     | Website:  https://openfoam.org
    \\  /    A nd           | Version:  9
     \\/     M anipulation  |
\*---------------------------------------------------------------------------*/
FoamFile
{
    format      ascii;
    class       volScalarField;
    location    "1500";
    object      ReThetat;
}
// * * * * * * * * * * * * * * * * * * * * * * * * * * * * * * * * * * * * * //

dimensions      [0 0 0 0 0 0 0];

internalField   nonuniform List<scalar> 
13617
(
1030.36
1013.15
1009.67
1006.08
1002.43
998.715
995.001
991.231
987.459
983.64
979.816
975.955
972.082
968.179
964.258
960.31
956.341
952.345
948.327
944.286
940.221
936.136
932.026
927.9
923.755
919.596
915.178
910.14
904.812
899.254
893.498
887.557
881.416
875.055
868.411
861.439
854.027
846.092
837.501
828.131
817.889
806.656
794.388
781.075
766.792
751.655
735.873
719.692
703.413
687.367
671.868
657.258
643.823
631.834
621.535
613.123
606.761
602.609
600.883
602.078
607.465
621.27
658.938
726.387
806.364
873.964
910.443
921.08
920.157
917.22
915.334
915.239
915.641
916.356
916.17
905.364
861.188
764.841
639.33
562.835
571.257
590.051
604.3
618.458
629.117
626.402
1031.2
1012.82
1009.36
1005.78
1002.14
998.436
994.734
990.973
987.215
983.409
979.6
975.754
971.896
968.009
964.104
960.171
956.217
952.236
948.231
944.2
940.144
936.06
931.951
927.816
923.656
919.476
915.059
909.93
904.437
898.683
892.69
886.471
880.017
873.313
866.297
858.916
851.09
842.707
833.668
823.846
813.161
801.499
788.834
775.164
760.552
745.13
729.107
712.722
696.268
680.062
664.426
649.673
636.095
623.95
613.472
604.845
598.189
593.585
591.13
591.09
594.107
602.284
624.067
669.84
747.079
824.897
885.555
916.26
926.185
924.17
921.599
920.743
920.848
922.123
924.527
921.284
893.778
816.863
689.007
571.281
556.09
576.756
594.706
610.666
624.612
629.05
1031.22
1012.06
1008.61
1005.05
1001.42
997.738
994.054
990.314
986.575
982.793
979.007
975.184
971.354
967.492
963.617
959.712
955.786
951.833
947.857
943.851
939.818
935.755
931.663
927.541
923.389
919.21
914.773
909.585
903.969
898.064
891.899
885.48
878.798
871.83
864.54
856.848
848.697
839.969
830.572
820.408
809.359
797.357
784.374
770.413
755.553
739.924
723.727
707.209
690.661
674.387
658.705
643.915
630.309
618.146
607.633
598.95
592.2
587.419
584.652
584.036
585.924
591.636
606.604
638.884
698.4
778.036
850.026
900.076
921.576
928.703
930.165
928.528
927.544
928.689
933.496
934.554
920.316
861.027
743.707
604.315
547.719
569.569
590.372
607.12
622.772
631.54
1030.89
1010.95
1007.5
1003.96
1000.35
996.687
993.026
989.309
985.597
981.844
978.087
974.298
970.502
966.676
962.838
958.973
955.088
951.175
947.239
943.273
939.279
935.254
931.196
927.107
922.982
918.825
914.418
909.192
903.499
897.497
891.199
884.627
877.776
870.61
863.094
855.166
846.74
837.736
828.046
817.572
806.225
793.93
780.674
766.454
751.372
735.562
719.215
702.59
685.962
669.636
653.921
639.122
625.509
613.33
602.808
594.105
587.305
582.422
579.469
578.49
579.634
583.765
594.53
618.186
663.16
729.415
807.464
868.039
904.738
925.108
933.001
934.248
934.941
937.644
940.927
943.002
927.995
885.107
796.073
663.551
559.639
557.996
583.185
602.454
619.307
631.026
1029.85
1009.46
1006.03
1002.51
998.922
995.28
991.647
987.958
984.279
980.559
976.841
973.093
969.34
965.56
961.77
957.956
954.122
950.262
946.38
942.47
938.528
934.557
930.551
926.512
922.432
918.315
913.958
908.712
902.974
896.898
890.507
883.822
876.832
869.508
861.802
853.675
845.019
835.764
825.825
815.073
803.462
790.905
777.393
762.955
747.667
731.688
715.214
698.483
681.784
665.415
649.669
634.854
621.235
609.056
598.529
589.815
582.983
578.037
574.957
573.71
574.309
577.284
585.077
602.405
635.987
687.713
753.156
822.194
870.8
900.23
916.338
925.813
929.214
930.63
928.493
915.35
894.312
868.863
816.693
720.244
605.654
554.22
577.837
598.75
616.111
629.881
1028.04
1007.56
1004.14
1000.64
997.082
993.471
989.87
986.22
982.583
978.907
975.238
971.541
967.843
964.122
960.393
956.642
952.875
949.084
945.271
941.431
937.561
933.661
929.724
925.753
921.737
917.68
913.35
908.105
902.344
896.209
889.749
882.972
875.853
868.388
860.521
852.189
843.333
833.847
823.66
812.661
800.788
787.981
774.229
759.575
744.102
727.965
711.364
694.549
677.79
661.383
645.624
630.803
617.185
605.016
594.503
585.8
578.97
574.006
570.858
569.446
569.663
571.794
577.461
590.1
614.912
654.386
706.21
763.873
810.262
843.555
865.441
879.558
884.342
885.438
881.571
872.525
858.694
844.204
816.432
754.596
664.624
580.413
571.748
595.078
613.669
628.636
1025.49
1005.2
1001.79
998.317
994.795
991.224
987.669
984.067
980.481
976.864
973.256
969.625
965.997
962.351
958.699
955.028
951.345
947.641
943.916
940.165
936.386
932.575
928.728
924.842
920.911
916.932
912.605
907.379
901.615
895.45
888.933
882.072
874.85
867.256
859.233
850.724
841.66
831.958
821.528
810.287
798.164
785.121
771.144
756.279
740.631
724.351
707.635
690.738
673.925
657.493
641.727
626.915
613.316
601.173
590.691
582.03
575.24
570.301
567.155
565.692
565.714
567.266
571.413
580.662
598.992
628.947
669.589
716.788
758.356
791.106
814.632
830.964
839.062
842.581
840.465
834.292
824.967
816.666
804.259
770.244
708.701
634.741
581.823
595.643
611.88
627.56
1022.2
1002.34
998.941
995.512
992.039
988.52
985.022
981.482
977.965
974.421
970.891
967.342
963.804
960.249
956.692
953.122
949.542
945.943
942.326
938.686
935.016
931.316
927.578
923.799
919.971
916.087
911.756
906.573
900.82
894.644
888.092
881.166
873.86
866.148
857.985
849.312
840.057
830.146
819.491
808.015
795.655
782.375
768.182
753.127
737.308
720.892
704.075
687.111
670.256
653.809
638.042
623.248
609.677
597.573
587.142
578.544
571.825
566.949
563.887
562.478
562.384
563.507
566.557
573.342
586.878
609.514
641.204
679.439
715.697
746.466
770.249
787.788
798.263
803.997
804.029
800.144
793.746
788.681
784.881
770.06
734.296
682.321
624.737
595.323
612.388
629.251
1018.14
998.923
995.552
992.179
988.77
985.32
981.897
978.44
975.011
971.56
968.129
964.685
961.253
957.811
954.374
950.926
947.472
944.001
940.514
937.006
933.47
929.9
926.294
922.643
918.939
915.144
910.833
905.702
899.982
893.815
887.244
880.272
872.899
865.087
856.8
847.971
838.545
828.431
817.566
805.865
793.284
779.786
765.385
750.148
734.173
717.629
700.72
683.694
666.808
650.347
634.596
619.821
606.287
594.232
583.866
575.351
568.723
563.954
561.038
559.751
559.575
560.377
562.628
567.618
577.606
594.649
619.201
649.871
680.828
708.773
731.778
749.677
761.702
769.26
771.416
769.529
765.192
761.738
762.096
758.865
742.393
710.512
668.081
624.573
618.072
632.431
1013.07
994.839
991.521
988.23
984.911
981.557
978.237
974.889
971.575
968.244
964.939
961.626
958.33
955.03
951.737
948.438
945.135
941.818
938.489
935.136
931.757
928.344
924.891
921.391
917.835
914.127
909.849
904.781
899.121
892.978
886.407
879.405
871.974
864.084
855.681
846.717
837.119
826.827
815.758
803.842
791.048
777.34
762.746
747.332
731.209
714.552
697.562
680.478
663.571
647.105
631.372
616.63
603.139
591.144
580.857
572.441
565.924
561.3
558.6
557.445
557.212
557.774
559.436
563.113
570.482
583.261
602.157
626.528
652.479
677.193
698.688
716.256
729.12
738.023
742.048
741.961
739.228
736.603
738.537
741.346
737.374
721.912
695.038
662.012
632.625
639.935
1006.83
989.954
986.731
983.561
980.371
977.152
973.971
970.77
967.608
964.435
961.291
958.144
955.019
951.894
948.777
945.658
942.537
939.404
936.259
933.092
929.897
926.668
923.394
920.069
916.682
913.059
908.823
903.841
898.253
892.149
885.594
878.585
871.111
863.147
854.646
845.554
835.798
825.332
814.07
801.948
788.944
775.039
760.256
744.68
728.424
711.659
694.593
677.467
660.539
644.082
628.372
613.668
600.232
588.304
578.109
569.809
563.419
558.982
556.553
555.51
555.239
555.617
556.842
559.556
564.989
574.533
588.985
608.171
629.579
650.954
670.473
687.174
700.254
709.997
715.523
717.033
715.655
713.588
715.8
721.101
724.145
720.081
706.604
685.256
660.822
645.062
999.272
984.217
981.123
978.123
975.11
972.074
969.082
966.072
963.104
960.132
957.192
954.251
951.336
948.421
945.519
942.615
939.709
936.793
933.863
930.911
927.928
924.909
921.84
918.714
915.521
911.97
907.796
902.913
897.405
891.366
884.839
877.831
870.331
862.304
853.713
844.494
834.6
823.955
812.505
800.19
786.984
772.886
757.932
742.201
725.816
708.954
691.824
674.664
657.727
641.283
625.604
610.946
597.566
585.716
575.623
567.453
561.205
556.998
554.849
553.902
553.606
553.844
554.741
556.744
560.746
567.849
578.829
593.795
611.202
629.332
646.629
662.072
674.859
684.976
691.579
694.436
694.245
692.718
694.702
700.482
706.732
709.516
705.749
694.996
680.019
662.169
990.573
977.692
974.792
972.012
969.227
966.424
963.666
960.893
958.164
955.434
952.738
950.044
947.375
944.708
942.054
939.397
936.739
934.069
931.382
928.672
925.927
923.139
920.298
917.392
914.39
910.914
906.827
902.047
896.629
890.667
884.178
877.177
869.653
861.577
852.897
843.564
833.525
822.715
811.081
798.577
785.183
770.898
755.774
739.892
723.393
706.444
689.258
672.069
655.132
638.709
623.066
608.461
595.151
583.384
573.4
565.368
559.278
555.322
553.446
552.584
552.271
552.401
553.049
554.524
557.467
562.732
571.02
582.591
596.554
611.663
626.668
640.6
652.699
662.771
670.029
673.951
674.786
673.847
675.525
680.832
687.957
694.149
696.461
693.704
686.372
675.057
981.112
970.686
968.021
965.504
962.988
960.455
957.969
955.47
953.016
950.561
948.14
945.722
943.329
940.936
938.554
936.169
933.782
931.378
928.956
926.504
924.014
921.474
918.874
916.202
913.368
909.98
905.982
901.31
895.992
890.098
883.653
876.667
869.122
860.993
852.225
842.778
832.594
821.626
809.806
797.112
783.534
769.069
753.784
737.764
721.16
704.129
686.897
669.692
652.764
636.366
620.769
606.222
592.983
581.306
571.437
563.544
557.623
553.955
552.306
551.519
551.194
551.239
551.695
552.774
554.932
558.818
565.032
573.898
584.955
597.347
610.11
622.402
633.538
643.22
650.742
655.422
657.103
656.778
658.254
662.783
669.56
676.868
682.342
684.772
683.615
680.038
971.487
963.623
961.228
959
956.775
954.536
952.344
950.139
947.98
945.817
943.688
941.561
939.457
937.351
935.254
933.151
931.042
928.913
926.761
924.575
922.344
920.057
917.701
915.263
912.567
909.264
905.354
900.78
895.555
889.723
883.32
876.338
868.767
860.572
851.716
842.146
831.813
820.679
808.678
795.798
782.029
767.391
751.953
735.805
719.099
702.006
684.736
667.521
650.611
634.253
618.703
604.22
591.056
579.473
569.724
561.969
556.224
552.856
551.395
550.672
550.34
550.316
550.622
551.401
552.974
555.827
560.455
567.188
575.836
585.845
596.506
607.133
617.125
626.155
633.607
638.741
641.067
641.333
642.745
646.507
652.448
659.55
666.144
671.356
674.33
678.104
962.266
956.978
954.855
952.924
950.996
949.057
947.162
945.254
943.389
941.52
939.683
937.845
936.029
934.208
932.392
930.566
928.73
926.872
924.984
923.056
921.076
919.033
916.912
914.698
912.098
908.869
905.031
900.538
895.381
889.608
883.223
876.231
868.618
860.351
851.386
841.687
831.204
819.885
807.701
794.632
780.678
765.872
750.286
734.019
717.219
700.069
682.775
665.563
648.677
632.362
616.874
602.46
589.375
577.886
568.256
560.633
555.066
551.986
550.682
550.014
549.677
549.598
549.785
550.334
551.47
553.549
556.968
562.034
568.716
576.683
585.437
594.446
603.21
611.412
618.526
623.83
626.586
627.37
628.821
631.953
636.973
643.256
649.736
655.96
661.151
667.017
953.953
951.092
949.258
947.616
945.978
944.328
942.719
941.097
939.515
937.928
936.368
934.807
933.263
931.712
930.162
928.598
927.02
925.413
923.773
922.084
920.339
918.52
916.615
914.587
912.042
908.871
905.082
900.646
895.536
889.792
883.401
876.378
868.704
860.344
851.258
841.404
830.756
819.252
806.875
793.615
779.477
764.506
748.774
732.397
715.521
698.325
681.016
663.818
646.97
630.708
615.28
600.941
587.94
576.548
567.033
559.53
554.137
551.316
550.146
549.525
549.184
549.059
549.15
549.521
550.328
551.828
554.33
558.104
563.204
569.455
576.526
584.019
591.543
598.812
605.392
610.62
613.593
614.792
616.333
618.98
623.185
628.475
634.228
640.341
646.277
653.727
946.735
946.206
944.65
943.28
941.914
940.534
939.193
937.838
936.519
935.193
933.891
932.583
931.291
929.987
928.681
927.355
926.012
924.634
923.217
921.745
920.208
918.59
916.876
914.977
912.462
909.316
905.558
901.143
896.054
890.303
883.885
876.803
869.04
860.563
851.338
841.322
830.482
818.786
806.207
792.75
778.429
763.298
747.428
730.952
714.005
696.778
679.467
662.297
645.492
629.293
613.94
599.678
586.761
575.46
566.054
558.66
553.428
550.827
549.771
549.191
548.847
548.684
548.697
548.928
549.484
550.549
552.359
555.137
558.981
563.814
569.431
575.551
581.877
588.17
594.084
599.041
602.032
603.531
605.163
607.449
610.989
615.344
620.176
625.592
631.314
639.351
940.748
942.394
941.106
939.988
938.873
937.741
936.646
935.535
934.456
933.366
932.298
931.22
930.155
929.073
927.986
926.875
925.74
924.567
923.346
922.066
920.711
919.267
917.718
915.882
913.374
910.23
906.469
902.049
896.94
891.157
884.683
877.519
869.641
861.02
851.629
841.435
830.392
818.488
805.706
792.05
777.546
762.26
746.267
729.697
712.694
695.449
678.145
661.011
644.265
628.137
612.864
598.685
585.851
574.639
565.33
558.029
552.933
550.509
549.55
549.005
548.659
548.463
548.412
548.531
548.894
549.631
550.918
552.934
555.79
559.469
563.856
568.763
573.974
579.301
584.477
589.013
591.853
593.529
595.223
597.237
600.257
603.819
607.768
612.291
617.297
625.049
935.92
939.632
938.608
937.722
936.836
935.931
935.059
934.168
933.306
932.431
931.572
930.702
929.839
928.958
928.064
927.144
926.193
925.199
924.151
923.035
921.839
920.544
919.134
917.3
914.773
911.607
907.81
903.357
898.202
892.354
885.794
878.515
870.501
861.718
852.14
841.743
830.496
818.373
805.38
791.527
776.842
761.404
745.294
728.643
711.598
694.345
677.069
659.986
643.311
627.261
612.07
597.977
585.228
574.098
564.871
557.644
552.652
550.355
549.477
548.963
548.614
548.39
548.285
548.313
548.526
549.013
549.904
551.34
553.424
556.178
559.542
563.402
567.605
572.013
576.43
580.45
582.993
584.735
586.447
588.243
590.85
593.772
596.983
600.652
604.777
611.696
932.229
937.877
937.101
936.428
935.751
935.052
934.383
933.691
933.025
932.342
931.672
930.987
930.305
929.6
928.879
928.127
927.338
926.499
925.602
924.628
923.566
922.395
921.084
919.211
916.642
913.427
909.575
905.053
899.83
893.884
887.21
879.789
871.614
862.649
852.869
842.257
830.785
818.438
805.231
791.178
776.323
760.742
744.527
727.809
710.739
693.491
676.254
659.232
642.637
626.679
611.581
597.576
584.907
573.849
564.689
557.514
552.583
550.357
549.546
549.058
548.706
548.458
548.306
548.261
548.354
548.649
549.24
550.233
551.721
553.739
556.268
559.24
562.558
566.122
569.8
573.249
575.401
577.107
578.781
580.388
582.651
585.058
587.693
590.653
593.94
599.798
929.589
937.06
936.528
936.05
935.562
935.049
934.563
934.051
933.561
933.05
932.549
932.029
931.507
930.958
930.391
929.784
929.137
928.433
927.664
926.811
925.86
924.793
923.524
921.589
918.953
915.67
911.739
907.124
901.796
895.734
888.918
881.337
872.974
863.803
853.811
842.968
831.26
818.686
805.265
791.016
775.998
760.285
743.978
727.208
710.125
692.899
675.718
658.773
642.271
626.41
611.41
597.498
584.908
573.91
564.794
557.648
552.734
550.509
549.749
549.285
548.93
548.66
548.469
548.361
548.358
548.505
548.866
549.522
550.549
551.989
553.844
556.078
558.636
561.449
564.436
567.304
568.995
570.592
572.177
573.61
575.565
577.543
579.741
582.159
584.751
589.546
927.959
937.141
936.839
936.538
936.221
935.875
935.553
935.202
934.868
934.51
934.159
933.785
933.405
932.993
932.556
932.077
931.552
930.964
930.302
929.549
928.69
927.702
926.423
924.403
921.684
918.311
914.275
909.547
904.088
897.884
890.901
883.138
874.568
865.177
854.948
843.867
831.921
819.12
805.486
791.047
775.873
760.038
743.657
726.848
709.772
692.585
675.476
658.623
642.223
626.473
611.577
597.756
585.241
574.295
565.202
558.054
553.111
550.805
550.079
549.636
549.278
548.989
548.763
548.603
548.522
548.551
548.736
549.135
549.809
550.797
552.114
553.745
555.664
557.825
560.188
562.492
563.698
565.134
566.582
567.85
569.515
571.121
572.977
574.998
577.066
580.925
927.32
938.061
937.985
937.844
937.68
937.483
937.306
937.097
936.902
936.678
936.459
936.211
935.953
935.66
935.337
934.966
934.543
934.051
933.478
932.804
932.016
931.089
929.746
927.622
924.803
921.319
917.155
912.291
906.68
900.304
893.138
885.167
876.377
866.748
856.278
844.948
832.758
819.729
805.887
791.267
775.952
760.012
743.573
726.744
709.691
692.562
675.539
658.793
642.51
626.883
612.099
598.372
585.928
575.021
565.927
558.747
553.726
551.239
550.525
550.102
549.742
549.436
549.18
548.975
548.831
548.767
548.814
549.017
549.419
550.058
550.951
552.096
553.487
555.096
556.914
558.693
559.429
560.664
561.941
563.047
564.432
565.702
567.276
569.005
570.697
573.799
927.586
939.777
939.913
939.915
939.886
939.82
939.77
939.685
939.61
939.503
939.397
939.257
939.104
938.911
938.684
938.404
938.064
937.649
937.145
936.533
935.795
934.91
933.449
931.208
928.271
924.655
920.347
915.324
909.539
902.975
895.603
887.407
878.378
868.504
857.78
846.199
833.766
820.513
806.466
791.68
776.237
760.211
743.728
726.905
709.895
692.845
675.925
659.304
643.154
627.655
612.992
599.364
586.987
576.105
566.988
559.743
554.597
551.871
551.081
550.675
550.314
549.992
549.71
549.468
549.271
549.132
549.073
549.125
549.32
549.689
550.25
551.009
551.973
553.124
554.477
555.783
556.095
557.105
558.184
559.131
560.247
561.211
562.537
564.037
565.463
567.981
928.745
942.213
942.557
942.686
942.774
942.821
942.881
942.901
942.929
942.922
942.911
942.863
942.798
942.689
942.54
942.331
942.059
941.703
941.251
940.683
939.978
939.085
937.487
935.114
932.042
928.279
923.811
918.608
912.632
905.86
898.265
889.831
880.551
870.423
859.438
847.604
834.933
821.464
807.228
792.294
776.734
760.644
744.14
727.344
710.394
693.443
676.649
660.166
644.165
628.811
614.276
600.75
588.438
577.57
568.408
561.065
555.749
552.729
551.744
551.345
550.985
550.65
550.346
550.072
549.832
549.633
549.491
549.426
549.462
549.625
549.928
550.384
551.008
551.786
552.754
553.645
553.596
554.373
555.24
556.032
556.887
557.574
558.676
559.979
561.206
563.282
930.688
945.304
945.842
946.083
946.272
946.414
946.567
946.677
946.792
946.867
946.936
946.963
946.969
946.927
946.841
946.688
946.466
946.154
945.738
945.196
944.508
943.557
941.809
939.291
936.068
932.145
927.5
922.102
915.92
908.924
901.093
892.41
882.872
872.482
861.241
849.157
836.252
822.579
808.168
793.101
777.45
761.32
744.815
728.066
711.203
694.375
677.726
661.403
645.562
630.366
615.97
602.551
590.304
579.443
570.214
562.742
557.213
553.856
552.508
552.098
551.744
551.399
551.076
550.777
550.501
550.255
550.047
549.892
549.807
549.812
549.917
550.138
550.495
550.977
551.632
552.166
551.829
552.378
553.029
553.67
554.278
554.719
555.611
556.732
557.793
559.53
933.356
948.971
949.688
950.027
950.299
950.522
950.751
950.936
951.121
951.264
951.398
951.486
951.547
951.557
951.518
951.408
951.222
950.938
950.542
950.01
949.324
948.269
946.36
943.685
940.303
936.203
931.367
925.763
919.361
912.131
904.053
895.114
885.317
874.664
863.17
850.841
837.721
823.856
809.289
794.108
778.391
762.241
745.764
729.088
712.337
695.652
679.167
663.024
647.366
632.341
618.096
604.792
592.611
581.75
572.44
564.81
559.031
555.296
553.484
552.935
552.583
552.231
551.893
551.572
551.267
550.983
550.724
550.5
550.324
550.208
550.162
550.203
550.355
550.605
551.011
551.245
550.69
551.03
551.471
551.967
552.34
552.568
553.266
554.212
555.116
556.581
936.644
953.132
954.011
954.433
954.775
955.063
955.355
955.599
955.841
956.037
956.221
956.356
956.461
956.509
956.505
956.424
956.259
955.99
955.6
955.065
954.365
953.161
951.081
948.245
944.691
940.404
935.367
929.547
922.917
915.444
907.114
897.916
887.856
876.95
865.209
852.65
839.327
825.29
810.592
795.324
779.563
763.421
746.998
730.423
713.808
697.291
680.995
665.052
649.594
634.756
620.673
607.495
595.386
584.524
575.123
567.314
561.253
557.107
554.782
553.827
553.487
553.135
552.785
552.447
552.12
551.805
551.506
551.23
550.984
550.777
550.617
550.524
550.519
550.59
550.804
550.789
550.08
550.237
550.485
550.841
550.995
551.042
551.565
552.341
553.088
554.317
940.478
957.693
958.725
959.22
959.618
959.957
960.3
960.589
960.874
961.112
961.334
961.504
961.64
961.714
961.731
961.666
961.51
961.243
960.848
960.298
959.572
958.178
955.921
952.912
949.178
944.699
939.454
933.412
926.548
918.829
910.245
900.791
890.476
879.324
867.346
854.574
841.069
826.88
812.075
796.747
780.973
764.87
748.531
732.083
715.632
699.309
683.223
667.502
652.264
637.632
623.73
610.69
598.659
587.802
578.306
570.303
563.937
559.355
556.492
555.005
554.437
554.104
553.743
553.39
553.047
552.71
552.38
552.064
551.765
551.49
551.246
551.053
550.932
550.867
550.936
550.716
549.907
549.908
549.99
550.213
550.163
550.063
550.434
551.047
551.631
552.644
944.767
962.578
963.747
964.306
964.749
965.127
965.507
965.831
966.148
966.415
966.664
966.857
967.013
967.103
967.13
967.07
966.914
966.638
966.226
965.649
964.852
963.262
960.827
957.639
953.72
949.043
943.586
937.32
930.217
922.254
913.418
903.714
893.156
881.766
869.572
856.608
842.944
828.634
813.752
798.394
782.637
766.602
750.377
734.084
717.824
701.72
685.872
670.396
655.401
640.994
627.288
614.402
602.463
591.62
582.035
573.836
567.152
562.117
558.699
556.633
555.549
555.097
554.764
554.397
554.034
553.681
553.332
552.986
552.648
552.321
552.014
551.749
551.543
551.379
551.339
550.955
550.09
549.964
549.908
550.007
549.769
549.555
549.798
550.26
550.675
551.485
949.424
967.723
969.001
969.615
970.091
970.498
970.904
971.251
971.591
971.877
972.143
972.351
972.517
972.614
972.642
972.577
972.41
972.117
971.676
971.063
970.159
968.366
965.75
962.382
958.272
953.395
947.725
941.233
933.895
925.692
916.613
906.668
895.879
884.274
871.882
858.752
844.957
830.554
815.628
800.271
784.565
768.629
752.548
736.443
720.402
704.545
688.959
673.753
659.022
644.864
631.374
618.66
606.833
596.018
586.359
577.972
570.973
565.481
561.497
558.824
557.158
556.22
555.78
555.461
555.091
554.712
554.341
553.976
553.612
553.249
552.897
552.581
552.314
552.077
551.958
551.444
550.558
550.329
550.169
550.15
549.745
549.447
549.587
549.911
550.156
550.768
954.343
973.034
974.411
975.073
975.574
976.001
976.424
976.785
977.14
977.437
977.71
977.924
978.093
978.186
978.208
978.131
977.945
977.624
977.148
976.491
975.438
973.445
970.646
967.098
962.795
957.718
951.835
945.121
937.555
929.118
919.807
909.639
898.639
886.84
874.274
861.006
847.113
832.649
817.711
802.39
786.77
770.968
755.065
739.177
723.384
707.802
692.506
677.593
663.152
649.264
636.014
623.495
611.802
601.038
591.328
582.773
575.477
569.542
564.994
561.697
559.417
557.91
556.99
556.472
556.158
555.811
555.423
555.028
554.636
554.245
553.865
553.517
553.209
552.924
552.747
552.133
551.252
550.942
550.706
550.578
550.027
549.671
549.731
549.933
550.01
550.441
959.477
978.464
979.911
980.617
981.136
981.574
982.006
982.376
982.736
983.036
983.311
983.523
983.686
983.771
983.779
983.681
983.47
983.115
982.596
981.887
980.646
978.458
975.478
971.749
967.256
961.98
955.888
948.961
941.173
932.519
922.992
912.616
901.427
889.458
876.753
863.38
849.418
834.931
820.019
804.768
789.27
773.636
757.942
742.303
726.791
711.51
696.531
681.939
667.813
654.221
641.237
628.938
617.404
606.722
596.99
588.3
580.739
574.395
569.304
565.387
562.469
560.353
558.869
557.86
557.183
556.84
556.512
556.145
555.738
555.316
554.906
554.53
554.194
553.879
553.664
552.978
552.125
551.752
551.468
551.239
550.567
550.177
550.176
550.271
550.192
550.412
964.723
983.949
985.443
986.189
986.72
987.163
987.599
987.969
988.329
988.627
988.899
989.102
989.254
989.325
989.312
989.189
988.944
988.549
987.982
987.215
985.757
983.378
980.217
976.308
971.629
966.158
959.865
952.733
944.738
935.879
926.155
915.597
904.247
892.14
879.325
865.882
851.888
837.414
822.564
807.421
792.083
776.652
761.2
745.842
730.638
715.69
701.054
686.811
673.027
659.758
647.068
635.018
623.674
613.107
603.394
594.611
586.83
580.126
574.539
570.028
566.472
563.72
561.631
560.066
558.914
558.134
557.532
557.163
556.808
556.428
556.023
555.632
555.268
554.925
554.678
553.94
553.132
552.7
552.383
552.059
551.29
550.879
550.827
550.829
550.591
550.834
970.031
989.439
990.957
991.742
992.281
992.723
993.157
993.524
993.878
994.169
994.43
994.621
994.758
994.807
994.769
994.616
994.334
993.893
993.273
992.42
990.739
988.175
984.839
980.752
975.894
970.235
963.752
956.427
948.242
939.196
929.298
918.584
907.1
894.886
881.998
868.522
854.536
840.115
825.366
810.37
795.227
780.033
764.859
749.812
734.949
720.36
706.097
692.229
678.814
665.897
653.53
641.762
630.643
620.228
610.58
601.755
593.812
586.812
580.794
575.742
571.578
568.192
565.474
563.314
561.617
560.316
559.286
558.517
557.878
557.418
557.054
556.719
556.393
556.059
555.788
555.007
554.236
553.846
553.538
553.138
552.304
551.889
551.808
551.743
551.412
975.35
994.888
996.412
997.236
997.781
998.218
998.646
999.005
999.35
999.629
999.876
1000.05
1000.17
1000.19
1000.12
999.936
999.612
999.122
998.445
997.465
995.572
992.83
989.326
985.069
980.036
974.201
967.537
960.037
951.679
942.471
932.426
921.584
909.999
897.713
884.788
871.319
857.381
843.052
828.444
813.634
798.721
783.801
768.938
754.234
739.741
725.542
711.68
698.215
685.197
672.661
660.649
649.195
638.338
628.12
618.583
609.773
601.735
594.512
588.144
582.625
577.911
573.926
570.586
567.81
565.52
563.651
562.112
560.863
559.821
558.975
558.305
557.759
557.414
557.134
556.911
556.15
555.446
980.623
1000.27
1001.78
1002.64
1003.19
1003.62
1004.04
1004.38
1004.72
1004.98
1005.21
1005.37
1005.46
1005.46
1005.36
1005.13
1004.76
1004.22
1003.48
1002.35
1000.25
997.333
993.667
989.246
984.05
978.051
971.225
963.564
955.056
945.708
935.546
924.61
912.958
900.637
887.717
874.293
860.443
846.247
831.819
817.233
802.587
787.976
773.458
759.128
745.035
731.252
717.822
704.787
692.194
680.069
668.442
657.339
646.784
636.805
627.432
618.697
610.633
603.27
596.64
590.744
585.56
581.036
577.114
573.732
570.833
568.362
566.251
564.457
562.919
561.614
560.528
559.621
558.914
558.351
557.976
557.228
556.655
985.81
1005.58
1007.03
1007.93
1008.48
1008.9
1009.31
1009.64
1009.96
1010.21
1010.42
1010.55
1010.61
1010.58
1010.45
1010.18
1009.76
1009.16
1008.36
1007.04
1004.76
1001.68
997.858
993.284
987.935
981.785
974.814
967.015
958.381
948.921
938.673
927.677
915.993
903.676
890.801
877.463
863.744
849.722
835.514
821.191
806.849
792.579
778.437
764.514
750.85
737.51
724.538
711.962
699.821
688.138
676.929
666.21
655.997
646.304
637.15
628.551
620.532
613.11
606.309
600.132
594.569
589.585
585.143
581.196
577.701
574.616
571.894
569.498
567.383
565.532
563.936
562.564
561.412
560.447
559.659
558.577
557.841
990.88
1010.78
1012.14
1013.09
1013.64
1014.06
1014.45
1014.77
1015.07
1015.29
1015.48
1015.59
1015.63
1015.56
1015.39
1015.07
1014.61
1013.95
1013.09
1011.55
1009.1
1005.87
1001.9
997.183
991.696
985.411
978.316
970.399
961.665
952.127
941.824
930.804
919.128
906.855
894.066
880.856
867.306
853.5
839.551
825.531
811.526
797.631
783.896
770.405
757.202
744.332
731.843
719.755
708.093
696.879
686.121
675.822
665.988
656.626
647.743
639.342
631.439
624.038
617.155
610.793
604.946
599.589
594.697
590.239
586.181
582.493
579.144
576.107
573.349
570.872
568.668
566.718
565.016
563.542
562.246
560.735
559.607
995.817
1015.86
1017.11
1018.1
1018.67
1019.07
1019.45
1019.75
1020.03
1020.23
1020.4
1020.48
1020.48
1020.38
1020.17
1019.81
1019.29
1018.58
1017.65
1015.89
1013.27
1009.9
1005.8
1000.95
995.34
988.939
981.741
973.734
964.929
955.342
945.019
934.012
922.383
910.195
897.534
884.493
871.156
857.605
843.951
830.271
816.638
803.15
789.856
776.822
764.105
751.733
739.75
728.176
717.021
706.302
696.023
686.179
676.764
667.776
659.21
651.069
643.346
636.043
629.162
622.705
616.66
611.013
605.746
600.834
596.254
591.985
588.007
584.302
580.857
577.684
574.787
572.155
569.789
567.682
565.759
563.727
562.116
1000.59
1020.83
1021.93
1022.97
1023.54
1023.94
1024.3
1024.58
1024.84
1025.02
1025.16
1025.21
1025.19
1025.05
1024.8
1024.39
1023.82
1023.05
1022
1020.06
1017.28
1013.78
1009.56
1004.6
998.881
992.384
985.105
977.035
968.191
958.589
948.282
937.326
925.785
913.725
901.231
888.401
875.317
862.06
848.738
835.43
822.205
809.153
796.328
783.781
771.573
759.725
748.27
737.23
726.61
716.413
706.638
697.28
688.321
679.751
671.554
663.719
656.236
649.099
642.295
635.819
629.657
623.794
618.216
612.903
607.839
603.008
598.403
594.014
589.848
585.925
582.263
578.861
575.729
572.876
570.204
567.542
565.309
1005.21
1025.68
1026.59
1027.69
1028.27
1028.66
1029
1029.27
1029.5
1029.66
1029.78
1029.8
1029.74
1029.56
1029.27
1028.82
1028.19
1027.36
1026.17
1024.05
1021.14
1017.52
1013.19
1008.14
1002.33
995.764
988.429
980.326
971.473
961.891
951.638
940.773
929.36
917.469
905.182
892.603
879.811
866.886
853.932
841.032
828.244
815.657
803.327
791.293
779.613
768.314
757.411
746.923
736.861
727.212
717.968
709.122
700.649
692.531
684.746
677.272
670.084
663.167
656.5
650.068
643.853
637.836
632.003
626.331
620.811
615.434
610.199
605.112
600.193
595.478
590.991
586.749
582.77
579.073
575.553
572.148
1009.65
1030.41
1031.1
1032.25
1032.85
1033.23
1033.56
1033.81
1034.02
1034.16
1034.24
1034.23
1034.14
1033.92
1033.58
1033.08
1032.4
1031.52
1030.18
1027.89
1024.87
1021.14
1016.72
1011.58
1005.71
999.096
991.734
983.627
974.8
965.274
955.112
944.376
933.132
921.45
909.414
897.123
884.663
872.107
859.555
847.093
834.776
822.677
810.865
799.371
788.239
777.501
767.174
757.26
747.768
738.688
730.003
721.695
713.737
706.102
698.765
691.686
684.839
678.192
671.712
665.376
659.156
653.03
646.977
640.977
635.022
629.106
623.236
617.431
611.731
606.188
600.831
595.687
590.793
586.176
581.73
577.49
1013.93
1035.03
1035.46
1036.67
1037.29
1037.66
1037.98