/*--------------------------------*- C++ -*----------------------------------*\
  =========                 |
  \\      /  F ield         | OpenFOAM: The Open Source CFD Toolbox
   \\    /   O peration     | Website:  https://openfoam.org
    \\  /    A nd           | Version:  9
     \\/     M anipulation  |
\*---------------------------------------------------------------------------*/
FoamFile
{
    format      ascii;
    class       volVectorField;
    location    "1500";
    object      U;
}
// * * * * * * * * * * * * * * * * * * * * * * * * * * * * * * * * * * * * * //

dimensions      [0 1 -1 0 0 0 0];

internalField   nonuniform List<vector> 
13617
(
(1.15193 3.02277e-05 -9.10354e-21)
(1.15209 7.56997e-05 9.50425e-21)
(1.15219 0.000137268 7.53823e-26)
(1.15226 0.000192845 -7.99051e-26)
(1.15232 0.000256423 -1.07083e-20)
(1.15237 0.00031353 8.142e-26)
(1.15241 0.000376464 -8.63058e-26)
(1.15246 0.000434585 5.50914e-21)
(1.1525 0.000496041 -5.39225e-21)
(1.15253 0.000553922 -5.15556e-21)
(1.15257 0.000613016 -4.78392e-21)
(1.15261 0.000669098 -4.23012e-21)
(1.15265 0.00072475 1.73347e-21)
(1.15269 0.000777327 -1.22453e-21)
(1.15273 0.000828127 -5.6492e-22)
(1.15277 0.000875421 2.68962e-22)
(1.15282 0.000919737 1.30396e-21)
(1.15288 0.000959922 1.21357e-25)
(1.15294 0.000996077 0)
(1.15301 0.00102739 -1.67826e-23)
(1.15308 0.00105378 4.07348e-21)
(1.15317 0.00107469 0)
(1.15327 0.00108998 0)
(1.15338 0.00109933 -8.63468e-21)
(1.1535 0.00110264 2.41835e-24)
(1.15364 0.00109978 3.39224e-24)
(1.1538 0.00109073 -7.66475e-24)
(1.15397 0.00107552 -9.36031e-21)
(1.15417 0.0010542 0)
(1.15439 0.00102686 0)
(1.15464 0.000993524 7.59551e-21)
(1.15491 0.000954184 -8.84272e-21)
(1.15521 0.000908698 2.10141e-23)
(1.15555 0.000856749 -1.18849e-20)
(1.15592 0.00079773 -2.56348e-23)
(1.15632 0.000730729 1.56387e-20)
(1.15677 0.000654394 8.88515e-21)
(1.15726 0.00056683 0)
(1.1578 0.000465669 -1.16012e-20)
(1.15839 0.000347734 0)
(1.15903 0.000209207 0)
(1.15973 4.55889e-05 0)
(1.1605 -0.000148456 9.36024e-21)
(1.16133 -0.000378923 3.36263e-22)
(1.16225 -0.000652366 -1.83429e-22)
(1.16324 -0.000975798 0)
(1.16433 -0.00135646 -2.45131e-22)
(1.16552 -0.00180156 -1.67631e-20)
(1.16682 -0.00231795 0)
(1.16823 -0.00291153 1.05465e-20)
(1.16978 -0.00358698 -1.16912e-20)
(1.17147 -0.00434741 0)
(1.17332 -0.00519288 0)
(1.17533 -0.00612098 -1.56507e-20)
(1.17754 -0.00712466 -8.4862e-21)
(1.17994 -0.00819263 -6.28561e-23)
(1.18258 -0.00930801 -9.91864e-21)
(1.18546 -0.0104459 8.12158e-23)
(1.18863 -0.0115739 -1.27122e-20)
(1.19211 -0.0126488 -2.23837e-20)
(1.19595 -0.0136148 0)
(1.2002 -0.0144001 7.99758e-21)
(1.20493 -0.0149132 -3.26132e-21)
(1.21022 -0.0150364 3.25264e-21)
(1.21617 -0.0146191 4.61047e-21)
(1.22291 -0.0134686 -2.97826e-22)
(1.23062 -0.011332 4.03429e-21)
(1.23952 -0.0078797 -3.20821e-22)
(1.24988 -0.00267937 -9.88977e-22)
(1.26208 0.00485133 9.62548e-22)
(1.2766 0.015487 6.19558e-22)
(1.294 0.0302829 2.52035e-21)
(1.31493 0.0507391 0)
(1.34066 0.079076 4.28719e-21)
(1.37461 0.118399 -4.4285e-21)
(1.41859 0.172013 4.28128e-21)
(1.45391 0.242874 9.23332e-21)
(1.42105 0.33678 -4.05393e-20)
(1.22503 0.466797 0)
(0.723012 0.605777 -2.22792e-21)
(0.0347448 0.634244 -1.04054e-20)
(-0.329214 0.669877 8.78062e-21)
(-0.501544 0.696938 -3.07951e-20)
(-0.602112 0.630592 9.97069e-20)
(-0.591166 0.547858 -8.88384e-20)
(-0.433073 0.457445 2.34329e-19)
(1.15193 3.08898e-05 -9.2349e-21)
(1.15209 7.61219e-05 9.54081e-21)
(1.15219 0.000138324 -1.00231e-20)
(1.15226 0.000194432 1.5829e-25)
(1.15232 0.000258585 -2.59881e-27)
(1.15237 0.000316231 -1.0971e-20)
(1.15242 0.000379756 5.54998e-21)
(1.15246 0.00043847 -5.50718e-21)
(1.1525 0.000500513 8.57504e-26)
(1.15254 0.000558989 0)
(1.15257 0.000618712 4.80261e-21)
(1.15261 0.000675398 8.46943e-21)
(1.15265 0.000731662 -1.20967e-25)
(1.15269 0.000784834 1.22366e-21)
(1.15273 0.00083619 1.76362e-24)
(1.15278 0.000884012 -2.68817e-22)
(1.15283 0.000928782 -1.30387e-21)
(1.15288 0.000969343 0)
(1.15294 0.00100577 0)
(1.15301 0.00103723 5.9717e-21)
(1.15308 0.00106359 -8.16885e-21)
(1.15317 0.0010843 1.18844e-24)
(1.15327 0.00109916 -1.84238e-24)
(1.15338 0.00110781 -3.67574e-23)
(1.1535 0.00111012 5.35417e-21)
(1.15364 0.0011059 -3.40684e-24)
(1.1538 0.00109511 -4.76998e-25)
(1.15397 0.0010777 9.37014e-21)
(1.15417 0.00105371 -5.74031e-24)
(1.15439 0.00102311 1.31207e-20)
(1.15463 0.000985945 0)
(1.1549 0.000942114 0)
(1.15521 0.000891424 -1.03582e-20)
(1.15554 0.000833469 1.18889e-20)
(1.15591 0.000767638 -1.36792e-20)
(1.15631 0.000692911 0)
(1.15676 0.000607903 8.96882e-21)
(1.15724 0.000510648 0)
(1.15778 0.000398678 2.32299e-20)
(1.15836 0.000268829 0)
(1.159 0.000117148 0)
(1.15969 -6.08788e-05 -1.36516e-22)
(1.16045 -0.000270691 1.44468e-22)
(1.16128 -0.000518271 0)
(1.16218 -0.000810259 -1.20776e-20)
(1.16316 -0.00115377 -1.35561e-20)
(1.16423 -0.00155605 -2.44737e-22)
(1.1654 -0.00202441 2.58704e-22)
(1.16667 -0.00256566 3.04279e-22)
(1.16806 -0.00318602 -1.08918e-20)
(1.16958 -0.00389029 1.17207e-20)
(1.17124 -0.00468174 0)
(1.17304 -0.00556082 0)
(1.17502 -0.0065256 -4.94221e-22)
(1.17717 -0.00757027 9.03979e-21)
(1.17953 -0.00868404 -1.27939e-21)
(1.18212 -0.00985149 1.35984e-21)
(1.18495 -0.0110506 1.06755e-20)
(1.18807 -0.0122518 1.13526e-20)
(1.19151 -0.0134162 1.3454e-20)
(1.19532 -0.0144935 6.1508e-21)
(1.19956 -0.0154199 -1.28753e-20)
(1.2043 -0.0161156 -3.2683e-21)
(1.20963 -0.0164784 3.28671e-21)
(1.21567 -0.0163777 -1.6782e-21)
(1.22257 -0.0156485 -2.02526e-22)
(1.23053 -0.0140803 1.97751e-22)
(1.23981 -0.0114025 -1.18619e-21)
(1.25074 -0.00726016 1.23635e-21)
(1.26377 -0.00119022 -5.65652e-22)
(1.27949 0.00741925 6.80135e-22)
(1.29865 0.0193895 2.23506e-22)
(1.32217 0.0358628 8.38513e-22)
(1.35165 0.0585986 -8.66032e-22)
(1.39072 0.0900509 0)
(1.44354 0.13271 5.14721e-21)
(1.50087 0.188668 7.20819e-21)
(1.5191 0.26271 9.27438e-21)
(1.41127 0.366295 6.2364e-21)
(0.995578 0.50647 -6.17804e-21)
(0.271138 0.61163 0)
(-0.202221 0.75736 0)
(-0.476543 0.786128 -1.11382e-20)
(-0.665183 0.757672 9.10537e-20)
(-0.736543 0.730528 -9.99041e-20)
(-0.662439 0.689 -1.65961e-19)
(1.15192 3.09325e-05 9.23603e-21)
(1.15209 7.66451e-05 -9.54102e-21)
(1.15219 0.000139534 2.00784e-20)
(1.15226 0.000196197 1.83373e-27)
(1.15232 0.000260954 1.63822e-25)
(1.15237 0.000319162 1.09723e-20)
(1.15242 0.000383289 -1.11208e-20)
(1.15246 0.000442574 5.54407e-21)
(1.1525 0.000505249 -1.57244e-25)
(1.15254 0.000564332 5.19536e-21)
(1.15257 0.000624674 -4.80286e-21)
(1.15261 0.000681992 1.20892e-23)
(1.15265 0.000738859 8.78473e-26)
(1.15269 0.000792633 9.32522e-25)
(1.15273 0.00084455 5.63203e-22)
(1.15278 0.000892902 0)
(1.15283 0.000938141 -1.32766e-21)
(1.15288 0.000979087 2.61079e-21)
(1.15294 0.00101579 2.08194e-21)
(1.15301 0.00104741 -2.99528e-21)
(1.15309 0.00107378 -2.24782e-23)
(1.15317 0.00109429 -5.42112e-21)
(1.15327 0.00110873 0)
(1.15338 0.00111671 -4.34156e-23)
(1.1535 0.00111803 -5.3542e-21)
(1.15364 0.00111249 -6.4156e-24)
(1.15379 0.00109998 3.62651e-24)
(1.15397 0.00108042 0)
(1.15417 0.00105377 1.15263e-23)
(1.15438 0.00101999 -1.31291e-20)
(1.15463 0.00097902 0)
(1.1549 0.000930743 8.95758e-21)
(1.1552 0.000874896 1.03397e-20)
(1.15553 0.000811035 -1.19859e-20)
(1.1559 0.000738442 1.37346e-20)
(1.1563 0.000656094 0)
(1.15674 0.000562495 -8.97266e-21)
(1.15722 0.000455679 0)
(1.15775 0.000333061 -1.16284e-20)
(1.15833 0.000191436 0)
(1.15896 2.68358e-05 0)
(1.15965 -0.000165372 1.36519e-22)
(1.1604 -0.0003906 9.43806e-24)
(1.16121 -0.000654995 1.03544e-23)
(1.1621 -0.00096509 2.37787e-20)
(1.16307 -0.00132812 2.39613e-22)
(1.16412 -0.00175144 1.51522e-20)
(1.16526 -0.00224231 -1.66475e-20)
(1.16651 -0.00280768 -2.87712e-22)
(1.16787 -0.00345383 1.01267e-20)
(1.16935 -0.0041857 3.54849e-22)
(1.17097 -0.00500676 0)
(1.17273 -0.00591828 0)
(1.17466 -0.00691825 1.53442e-20)
(1.17676 -0.00800181 -5.31954e-22)
(1.17907 -0.00915976 -1.87876e-20)
(1.18159 -0.0103784 9.842e-21)
(1.18437 -0.0116376 -1.04443e-20)
(1.18743 -0.0129111 -9.70134e-21)
(1.19081 -0.0141646 -1.46702e-21)
(1.19457 -0.0153543 1.47245e-21)
(1.19876 -0.0164245 4.84448e-21)
(1.20347 -0.0173064 4.5505e-23)
(1.20879 -0.0179133 1.6873e-21)
(1.21485 -0.0181373 0)
(1.22181 -0.0178445 1.31397e-20)
(1.22988 -0.0168645 -3.06924e-21)
(1.23934 -0.0149833 0)
(1.25055 -0.011931 0)
(1.26399 -0.00736078 0)
(1.28029 -0.000828591 -1.55196e-21)
(1.30028 0.00823605 0)
(1.32502 0.0206117 9.34692e-22)
(1.35618 0.0374432 -3.00868e-21)
(1.39723 0.0602487 4.80927e-21)
(1.45314 0.0902314 -5.60885e-21)
(1.52106 0.127774 -4.05408e-21)
(1.57254 0.175765 8.04055e-21)
(1.5402 0.245376 2.80887e-20)
(1.26814 0.361661 0)
(0.6209 0.511665 6.42255e-20)
(-0.0418605 0.75307 -1.07896e-19)
(-0.407509 0.796521 0)
(-0.617788 0.793739 3.40486e-20)
(-0.711595 0.800717 1.30647e-19)
(-0.678788 0.799979 -2.21877e-19)
(1.15193 3.06868e-05 6.97955e-26)
(1.15209 7.71949e-05 -1.46777e-25)
(1.15219 0.000140766 2.72527e-23)
(1.15226 0.000197977 0)
(1.15232 0.000263331 1.08197e-20)
(1.15237 0.000322098 -1.10411e-20)
(1.15242 0.000386799 5.57028e-21)
(1.15246 0.000446686 -5.54439e-21)
(1.1525 0.00050994 5.45053e-21)
(1.15254 0.000569628 -5.1958e-21)
(1.15258 0.000630594 6.72813e-26)
(1.15261 0.000688506 7.84728e-24)
(1.15265 0.000745995 8.79172e-26)
(1.15269 0.000800358 -1.32854e-24)
(1.15273 0.000852851 5.60065e-26)
(1.15278 0.000901717 -2.91518e-22)
(1.15283 0.000947425 -1.50336e-23)
(1.15288 0.000988773 -2.61096e-21)
(1.15294 0.00102578 1.52921e-23)
(1.15301 0.00105757 -1.48992e-24)
(1.15309 0.00108395 -2.46802e-23)
(1.15317 0.0011043 5.42274e-21)
(1.15327 0.00111835 0)
(1.15338 0.00112568 8.71841e-21)
(1.1535 0.00112606 2.83848e-24)
(1.15364 0.00111922 -3.00815e-24)
(1.15379 0.00110504 7.9495e-21)
(1.15397 0.00108334 -9.49159e-21)
(1.15416 0.00105408 -1.1575e-23)
(1.15438 0.00101715 1.22643e-23)
(1.15462 0.000972435 -7.74585e-21)
(1.15489 0.00091974 -8.94263e-21)
(1.15519 0.000858781 2.12213e-23)
(1.15552 0.00078903 1.19424e-20)
(1.15589 0.000709715 0)
(1.15628 0.000619757 0)
(1.15672 0.00051761 -8.97755e-21)
(1.1572 0.000401202 2.87896e-24)
(1.15773 0.00026797 -9.12339e-23)
(1.1583 0.000114568 1.03472e-22)
(1.15892 -6.29413e-05 -5.66322e-23)
(1.1596 -0.00026931 1.36607e-22)
(1.16034 -0.000509979 -1.44588e-22)
(1.16115 -0.000791029 0)
(1.16202 -0.00111928 -1.22713e-20)
(1.16297 -0.00150177 1.37557e-20)
(1.16401 -0.00194587 -1.51687e-20)
(1.16513 -0.00245917 3.40967e-20)
(1.16635 -0.00304847 -9.3819e-21)
(1.16769 -0.00372019 -1.07966e-20)
(1.16913 -0.00447952 1.15349e-20)
(1.17071 -0.00533009 4.06649e-22)
(1.17243 -0.0062735 -4.29306e-22)
(1.17431 -0.00730878 -1.53772e-20)
(1.17637 -0.00843128 5.28057e-22)
(1.17862 -0.00963368 8.51294e-21)
(1.18109 -0.0109035 0)
(1.1838 -0.0122233 1.04619e-20)
(1.1868 -0.0135703 9.74189e-21)
(1.19013 -0.0149145 1.45726e-20)
(1.19383 -0.0162186 -7.6934e-21)
(1.19797 -0.0174355 1.58253e-21)
(1.20264 -0.0185073 -1.66126e-21)
(1.20793 -0.0193645 0)
(1.21399 -0.0199196 -1.67702e-21)
(1.22097 -0.0200676 -6.66338e-21)
(1.22909 -0.0196802 -1.80349e-21)
(1.23864 -0.0186001 1.93928e-21)
(1.24999 -0.0166365 1.74726e-21)
(1.26362 -0.0135521 5.61509e-21)
(1.28018 -0.00906418 6.62796e-23)
(1.30051 -0.00283234 -1.93739e-21)
(1.32568 0.00557846 0)
(1.35731 0.0167623 2.05515e-21)
(1.39839 0.031412 2.75033e-21)
(1.45344 0.0496388 -5.7587e-21)
(1.52255 0.070319 -1.33395e-20)
(1.58766 0.0937992 0)
(1.60042 0.128361 -2.67346e-20)
(1.44712 0.199531 5.99579e-20)
(0.984152 0.325771 -3.43907e-20)
(0.240279 0.607587 8.06686e-20)
(-0.284539 0.763488 -1.62883e-19)
(-0.571826 0.796532 5.22531e-20)
(-0.707024 0.824237 -8.69787e-20)
(-0.70918 0.846518 8.17265e-20)
(1.15193 3.04616e-05 0)
(1.15209 7.77578e-05 9.61912e-21)
(1.15219 0.000141988 -1.00839e-20)
(1.15226 0.000199741 1.0496e-20)
(1.15232 0.000265672 -2.16698e-20)
(1.15237 0.000324967 2.21119e-20)
(1.15242 0.000390255 -1.74651e-25)
(1.15246 0.000450678 5.57446e-21)
(1.1525 0.000514538 -5.45001e-21)
(1.15254 0.000574811 0)
(1.15258 0.000636365 4.83899e-21)
(1.15262 0.000694883 -4.26178e-21)
(1.15265 0.000752966 3.38357e-26)
(1.15269 0.00080791 -1.22346e-21)
(1.15274 0.00086096 -5.50189e-22)
(1.15278 0.000910361 2.91487e-22)
(1.15283 0.000956546 1.34285e-21)
(1.15289 0.000998283 2.6545e-21)
(1.15295 0.00103559 1.46691e-23)
(1.15301 0.00106757 3.05224e-21)
(1.15309 0.00109399 4.14148e-21)
(1.15318 0.00111419 5.48369e-21)
(1.15327 0.00112788 0)
(1.15338 0.0011346 8.80755e-21)
(1.1535 0.00113406 2.85231e-24)
(1.15364 0.00112597 -3.02282e-24)
(1.15379 0.00111014 -1.59275e-20)
(1.15397 0.00108637 -4.02063e-23)
(1.15416 0.00105454 1.1623e-23)
(1.15438 0.00101449 -2.59435e-23)
(1.15462 0.00096607 7.74569e-21)
(1.15489 0.000909017 0)
(1.15518 0.000842964 -1.04446e-20)
(1.15551 0.000767368 0)
(1.15587 0.000681368 0)
(1.15627 0.00058381 1.58e-20)
(1.15671 0.000473134 9.05055e-21)
(1.15718 0.000347171 0)
(1.1577 0.000203305 0)
(1.15827 3.81841e-05 -5.357e-23)
(1.15889 -0.000152294 5.67221e-23)
(1.15956 -0.000372772 0)
(1.16029 -0.000628838 -1.54011e-22)
(1.16109 -0.000926595 1.62987e-22)
(1.16195 -0.00127284 -1.20571e-20)
(1.16288 -0.00167478 0)
(1.1639 -0.00213972 -2.43034e-22)
(1.165 -0.00267519 -1.66432e-20)
(1.1662 -0.00328817 9.10538e-21)
(1.1675 -0.00398532 -1.52565e-23)
(1.16892 -0.00477184 -1.1564e-20)
(1.17046 -0.00565171 -1.5995e-23)
(1.17214 -0.00662676 -1.30081e-20)
(1.17397 -0.00769677 1.46911e-20)
(1.17598 -0.00885862 5.24575e-22)
(1.17817 -0.0101052 8.36829e-21)
(1.18058 -0.0114265 -1.2169e-21)
(1.18324 -0.0128075 1.28208e-21)
(1.18618 -0.0142287 -1.37978e-21)
(1.18944 -0.0156648 1.3569e-21)
(1.19308 -0.0170847 0)
(1.19717 -0.01845 4.79389e-21)
(1.20179 -0.0197149 8.31393e-21)
(1.20703 -0.0208238 1.69738e-21)
(1.21305 -0.0217109 -3.63011e-23)
(1.22 -0.0223008 -1.82506e-21)
(1.22811 -0.0225028 3.5823e-21)
(1.23766 -0.0222134 -3.63537e-21)
(1.249 -0.0213148 0)
(1.26263 -0.0196728 -3.9025e-21)
(1.27914 -0.0171479 0)
(1.29935 -0.0135971 -9.60306e-21)
(1.32427 -0.00887529 -8.86036e-22)
(1.35534 -0.00283904 9.76132e-21)
(1.39502 0.00457671 8.46378e-21)
(1.44697 0.0127674 -8.59914e-21)
(1.51227 0.019684 -3.0388e-21)
(1.57944 0.0237384 0)
(1.61446 0.029494 0)
(1.53929 0.0563297 0)
(1.23957 0.129133 -3.89551e-20)
(0.634398 0.346113 -1.34142e-19)
(-0.0958765 0.654206 -2.6762e-19)
(-0.471853 0.73722 1.77275e-19)
(-0.661601 0.793162 5.19181e-20)
(-0.703083 0.835548 -4.53072e-20)
(1.15193 3.03179e-05 0)
(1.15209 7.83473e-05 -9.61951e-21)
(1.15219 0.000143228 0)
(1.15227 0.000201481 -1.04964e-20)
(1.15232 0.000267993 1.08481e-20)
(1.15238 0.000327794 -2.21723e-20)
(1.15242 0.000393637 0)
(1.15246 0.000454603 -5.57527e-21)
(1.1525 0.000519015 0)
(1.15254 0.000579857 0)
(1.15258 0.000641995 -4.83904e-21)
(1.15262 0.000701095 4.27484e-21)
(1.15266 0.000759754 -1.74517e-21)
(1.1527 0.000815271 9.31289e-26)
(1.15274 0.000868878 5.50169e-22)
(1.15278 0.000918789 -9.90726e-26)
(1.15283 0.000965438 1.0501e-25)
(1.15289 0.00100758 -2.65465e-21)
(1.15295 0.0010452 -4.23754e-21)
(1.15302 0.00107737 -3.05071e-21)
(1.15309 0.00110384 4.19049e-21)
(1.15318 0.00112391 -5.48283e-21)
(1.15327 0.00113726 1.8809e-24)
(1.15338 0.00114339 -8.80779e-21)
(1.1535 0.00114197 -2.47829e-24)
(1.15364 0.00113266 0)
(1.15379 0.00111523 7.98194e-21)
(1.15397 0.00108942 9.53934e-21)
(1.15416 0.00105507 -1.04801e-23)
(1.15438 0.00101196 -1.36797e-23)
(1.15462 0.00095986 -7.7891e-21)
(1.15488 0.000898481 1.68958e-23)
(1.15518 0.000827408 1.04465e-20)
(1.1555 0.000745979 1.20766e-20)
(1.15586 0.000653337 0)
(1.15626 0.000548224 -1.58354e-20)
(1.15669 0.000429035 9.02072e-21)
(1.15716 0.000293572 3.88787e-23)
(1.15768 0.000139109 0)
(1.15824 -3.77302e-05 0)
(1.15885 -0.000241069 1.21239e-22)
(1.15952 -0.000475642 -1.28342e-22)
(1.16024 -0.000747041 9.54386e-21)
(1.16102 -0.00106142 0)
(1.16187 -0.00142553 1.18693e-20)
(1.16279 -0.00184667 -1.35022e-20)
(1.16378 -0.00233218 -1.48428e-20)
(1.16486 -0.0028896 1.67985e-20)
(1.16603 -0.00352608 -9.33565e-21)
(1.16731 -0.00424809 -3.31768e-22)
(1.16869 -0.00506126 3.50622e-22)
(1.17019 -0.00596996 0)
(1.17183 -0.00697626 1.07388e-22)
(1.17361 -0.00808059 -3.02306e-20)
(1.17557 -0.0092805 8.17823e-21)
(1.17771 -0.0105708 -8.88239e-23)
(1.18006 -0.011943 -9.52277e-21)
(1.18265 -0.0133845 0)
(1.18552 -0.0148793 0)
(1.18872 -0.016407 -1.16239e-20)
(1.19228 -0.0179424 0)
(1.1963 -0.0194554 -6.4028e-21)
(1.20084 -0.0209112 -1.16631e-20)
(1.20601 -0.0222696 -1.68897e-23)
(1.21194 -0.0234843 -1.807e-21)
(1.21881 -0.0245061 1.86841e-21)
(1.22682 -0.0252805 -1.95467e-21)
(1.23624 -0.0257513 -4.24351e-21)
(1.24741 -0.0258678 -2.31789e-21)
(1.26079 -0.0255799 2.41339e-21)
(1.27693 -0.024868 0)
(1.29654 -0.0237545 9.92515e-21)
(1.32053 -0.022321 4.08797e-21)
(1.35012 -0.0207469 -5.45823e-21)
(1.38721 -0.0194165 1.01272e-20)
(1.43455 -0.0193869 -1.02927e-20)
(1.49332 -0.0230856 3.83279e-20)
(1.5561 -0.0331334 -2.18782e-20)
(1.59921 -0.0480016 0)
(1.56984 -0.0552383 -6.44802e-20)
(1.3858 -0.0317646 7.12349e-20)
(0.964432 0.0911514 -6.21179e-20)
(0.273283 0.364438 1.03144e-19)
(-0.307553 0.633563 1.05244e-20)
(-0.587082 0.722581 1.61099e-19)
(-0.68058 0.783426 0)
(1.15193 3.01954e-05 7.02142e-26)
(1.15209 7.89647e-05 9.66663e-21)
(1.15219 0.000144481 1.016e-20)
(1.15227 0.000203228 1.05523e-20)
(1.15232 0.000270284 8.1508e-26)
(1.15238 0.000330579 1.11011e-20)
(1.15242 0.000396951 -5.63102e-21)
(1.15247 0.000458433 -5.60482e-21)
(1.1525 0.000523398 9.45831e-26)
(1.15254 0.000584766 -6.53521e-26)
(1.15258 0.000647471 -4.86001e-21)
(1.15262 0.000707123 -8.55789e-21)
(1.15266 0.000766355 1.74516e-21)
(1.1527 0.00082242 -1.21968e-21)
(1.15274 0.000876559 5.53773e-26)
(1.15279 0.00092698 -1.00422e-25)
(1.15284 0.000974085 1.06448e-25)
(1.15289 0.00101662 4.11939e-25)
(1.15295 0.00105455 -1.47877e-23)
(1.15302 0.00108691 -2.08394e-25)
(1.15309 0.00111343 -4.19067e-21)
(1.15318 0.00113339 0)
(1.15327 0.00114642 0)
(1.15338 0.00115197 8.89319e-21)
(1.1535 0.0011497 2.8787e-24)
(1.15364 0.0011392 -3.05079e-24)
(1.15379 0.00112019 0)
(1.15396 0.00109239 -9.5973e-21)
(1.15416 0.00105554 -2.22356e-23)
(1.15437 0.0010094 1.24116e-23)
(1.15461 0.000953679 7.78833e-21)
(1.15488 0.00088802 -9.08454e-21)
(1.15517 0.000811939 2.14251e-23)
(1.15549 0.000724746 -1.21005e-20)
(1.15585 0.000625473 0)
(1.15624 0.00051287 -1.58765e-20)
(1.15667 0.000385188 -9.0926e-21)
(1.15714 0.00024024 -1.0286e-20)
(1.15765 7.52365e-05 5.05722e-23)
(1.15821 -0.000113277 -1.00434e-22)
(1.15881 -0.000329447 -1.21289e-22)
(1.15947 -0.000578027 2.65143e-22)
(1.16018 -0.000864646 -1.92309e-20)
(1.16095 -0.00119553 1.08946e-20)
(1.16178 -0.00157744 -1.24035e-20)
(1.16268 -0.0020175 1.3699e-20)
(1.16366 -0.00252331 1.48353e-20)
(1.16472 -0.00310239 -1.65501e-20)
(1.16586 -0.00376185 9.33993e-21)
(1.1671 -0.00450836 -1.0622e-20)
(1.16845 -0.00534765 -1.1375e-20)
(1.16991 -0.00628419 7.83686e-22)
(1.1715 -0.00732102 -3.08148e-22)
(1.17324 -0.00845868 2.99884e-20)
(1.17514 -0.00969597 -7.15495e-21)
(1.17722 -0.011029 -9.94496e-21)
(1.1795 -0.012451 8.33971e-21)
(1.18203 -0.013952 -1.01147e-20)
(1.18482 -0.0155193 1.345e-21)
(1.18794 -0.0171369 0)
(1.19142 -0.0187857 0)
(1.19534 -0.0204441 6.33715e-21)
(1.19979 -0.022087 5.00945e-21)
(1.20485 -0.0236882 -6.96157e-21)
(1.21066 -0.0252196 1.82385e-21)
(1.21739 -0.0266566 0)
(1.22522 -0.027975 0)
(1.2344 -0.0291616 2.01143e-21)
(1.24526 -0.0302183 -2.58452e-21)
(1.25819 -0.0311693 0)
(1.27368 -0.0320869 0)
(1.29233 -0.0331154 -1.19414e-20)
(1.3149 -0.034499 4.59392e-21)
(1.34236 -0.0366397 0)
(1.3761 -0.0402047 0)
(1.41804 -0.0464608 0)
(1.46898 -0.0578647 0)
(1.52393 -0.0773426 5.72272e-20)
(1.5664 -0.105199 -3.19055e-20)
(1.56061 -0.134159 4.994e-20)
(1.44919 -0.146221 3.97201e-20)
(1.16961 -0.0937041 -9.73686e-20)
(0.660869 0.0754255 1.47769e-19)
(-0.0159046 0.398886 -1.53139e-19)
(-0.432072 0.603678 -1.05991e-21)
(-0.621095 0.698446 -6.50657e-20)
(1.15193 3.00603e-05 9.3166e-21)
(1.15209 7.96251e-05 -9.66666e-21)
(1.15219 0.000145737 2.57919e-23)
(1.15227 0.000204969 -1.0553e-20)
(1.15232 0.000272536 -7.91096e-26)
(1.15238 0.00033331 1.73258e-25)
(1.15242 0.000400187 5.63146e-21)
(1.15247 0.000462159 -1.50147e-23)
(1.15251 0.000527636 -5.50634e-21)
(1.15255 0.000589534 1.49931e-25)
(1.15258 0.000652767 4.86024e-21)
(1.15262 0.000712964 8.57371e-21)
(1.15266 0.000772718 1.74878e-21)
(1.1527 0.000829328 1.2195e-21)
(1.15274 0.000883987 6.37763e-27)
(1.15279 0.000934886 9.50133e-26)
(1.15284 0.000982443 -1.07867e-25)
(1.15289 0.00102536 4.14765e-25)
(1.15295 0.00106359 4.29333e-21)
(1.15302 0.00109614 -1.52679e-24)
(1.1531 0.00112272 9.19997e-25)
(1.15318 0.00114256 0)
(1.15328 0.00115527 0)
(1.15338 0.00116027 -8.89362e-21)
(1.1535 0.00115715 0)
(1.15364 0.00114548 -7.00009e-24)
(1.15379 0.00112493 -8.07565e-21)
(1.15396 0.00109515 1.92427e-20)
(1.15415 0.00105585 1.05629e-23)
(1.15437 0.0010067 0)
(1.1546 0.000947391 -1.60533e-23)
(1.15487 0.000877483 9.10163e-21)
(1.15516 0.000796436 -1.05627e-20)
(1.15548 0.000703484 2.2762e-23)
(1.15584 0.000597646 0)
(1.15622 0.000477522 1.59097e-20)
(1.15665 0.000341426 7.36841e-23)
(1.15711 0.000187005 1.02497e-20)
(1.15762 1.14742e-05 0)
(1.15817 -0.000188681 0)
(1.15877 -0.000417618 0)
(1.15941 -0.00068018 0)
(1.16011 -0.000981976 8.00019e-24)
(1.16087 -0.00132917 -2.14319e-20)
(1.16169 -0.00172865 2.38399e-20)
(1.16258 -0.00218758 -1.15022e-23)
(1.16353 -0.00271335 2.28555e-22)
(1.16456 -0.00331359 -1.6672e-20)
(1.16568 -0.0039956 0)
(1.16689 -0.00476599 9.96665e-21)
(1.1682 -0.00563077 6.24848e-23)
(1.16962 -0.00659471 3.81668e-22)
(1.17117 -0.00766084 2.7261e-20)
(1.17285 -0.008831 -1.49335e-20)
(1.17469 -0.0101047 -9.0488e-21)
(1.17671 -0.0114792 1.07756e-21)
(1.17892 -0.0129496 9.33021e-21)
(1.18137 -0.0145085 2.13587e-20)
(1.18409 -0.0161467 -2.67482e-21)
(1.18711 -0.0178522 2.83812e-21)
(1.1905 -0.0196118 4.47553e-21)
(1.19432 -0.0214113 -4.92384e-23)
(1.19865 -0.0232353 0)
(1.20358 -0.0250704 8.72747e-21)
(1.20924 -0.0269053 -9.19744e-21)
(1.21576 -0.0287351 -7.82482e-21)
(1.22335 -0.0305645 0)
(1.23222 -0.0324121 0)
(1.24265 -0.0343255 4.94007e-21)
(1.25498 -0.0363838 0)
(1.26962 -0.0387284 7.03277e-21)
(1.28708 -0.0415882 8.64139e-21)
(1.30792 -0.0453127 -1.09573e-20)
(1.33288 -0.0504357 0)
(1.36293 -0.0577549 9.50477e-21)
(1.39923 -0.0685739 -1.28451e-20)
(1.44209 -0.0851242 2.15511e-20)
(1.48789 -0.110196 -4.74442e-20)
(1.52504 -0.144935 3.26525e-20)
(1.52916 -0.185278 -7.77177e-20)
(1.46076 -0.218356 8.72481e-20)
(1.27564 -0.212035 4.41306e-20)
(0.926055 -0.123968 5.97923e-20)
(0.394688 0.0873057 -1.79404e-19)
(-0.242542 0.450476 1.82793e-19)
(-0.503472 0.582141 -9.94439e-21)
(1.15193 2.99453e-05 1.50391e-23)
(1.15209 8.02847e-05 9.71396e-21)
(1.15219 0.000147002 2.51725e-23)
(1.15227 0.000206681 1.59585e-25)
(1.15233 0.000274762 -1.69158e-25)
(1.15238 0.000335973 1.66572e-25)
(1.15242 0.000403337 -1.76554e-25)
(1.15247 0.000465768 5.62063e-21)
(1.15251 0.000531741 1.10268e-20)
(1.15255 0.000594132 -5.2727e-21)
(1.15258 0.000657867 1.59281e-25)
(1.15262 0.000718571 -8.5877e-21)
(1.15266 0.000778858 -1.74887e-21)
(1.1527 0.000835961 1.21747e-21)
(1.15275 0.000891111 -5.31756e-22)
(1.15279 0.000942489 3.37105e-22)
(1.15284 0.000990466 -1.41502e-21)
(1.15289 0.00103375 2.73684e-21)
(1.15295 0.00107227 1.38187e-23)
(1.15302 0.001105 -6.62745e-25)
(1.1531 0.00113163 1.16545e-24)
(1.15318 0.00115136 -5.59868e-21)
(1.15328 0.00116376 0)
(1.15338 0.0011682 8.97566e-21)
(1.1535 0.00116426 0)
(1.15364 0.00115143 -7.02919e-24)
(1.15379 0.00112935 8.0991e-21)
(1.15396 0.00109761 -9.65444e-21)
(1.15415 0.00105587 -1.17984e-23)
(1.15436 0.00100375 1.25021e-23)
(1.1546 0.000940882 0)
(1.15486 0.000866747 -9.12074e-21)
(1.15515 0.000780743 -4.82968e-23)
(1.15547 0.000682085 -2.47643e-23)
(1.15582 0.00056966 -3.05046e-23)
(1.15621 0.000442094 1.24899e-22)
(1.15663 0.000297545 -6.86324e-23)
(1.15709 0.000133703 0)
(1.15759 -5.23486e-05 0)
(1.15813 -0.000264106 -1.31901e-20)
(1.15872 -0.000505777 -1.51336e-20)
(1.15936 -0.0007822 -1.69293e-20)
(1.16005 -0.00109906 1.90551e-20)
(1.16079 -0.00146254 1.07083e-20)
(1.1616 -0.00187937 -1.18103e-20)
(1.16246 -0.00235684 1.13181e-23)
(1.1634 -0.00290234 1.20787e-23)
(1.16441 -0.00352344 1.64184e-20)
(1.16549 -0.00422741 0)
(1.16667 -0.00502111 1.01712e-20)
(1.16794 -0.00591047 1.12851e-20)
(1.16932 -0.00690093 1.30866e-20)
(1.17081 -0.00799562 -1.44032e-20)
(1.17244 -0.00919701 1.46524e-20)
(1.17422 -0.0105058 8.02924e-21)
(1.17617 -0.0119203 0)
(1.17832 -0.0134375 -1.09097e-22)
(1.18069 -0.0150526 -9.993e-21)
(1.18332 -0.0167591 0)
(1.18625 -0.0185496 -1.11747e-20)
(1.18953 -0.0204161 -7.46613e-21)
(1.19323 -0.0223514 -4.73491e-21)
(1.19742 -0.0243488 6.58825e-21)
(1.2022 -0.0264064 1.75201e-21)
(1.20766 -0.0285259 3.67054e-21)
(1.21395 -0.0307224 9.78545e-21)
(1.22124 -0.0330203 -2.17797e-21)
(1.22972 -0.0354677 -9.52007e-21)
(1.23962 -0.0381446 7.79678e-21)
(1.25124 -0.04117 0)
(1.2649 -0.0447313 -7.04756e-21)
(1.28099 -0.0491105 -8.66316e-21)
(1.29992 -0.0547112 1.09917e-20)
(1.32221 -0.0621184 1.42642e-20)
(1.34844 -0.0721543 -2.05913e-20)
(1.37922 -0.0860395 2.4208e-20)
(1.41443 -0.105651 0)
(1.45116 -0.133366 0)
(1.48117 -0.17055 -6.20944e-20)
(1.48777 -0.214981 -1.43023e-20)
(1.44401 -0.257805 -5.36e-20)
(1.31909 -0.277753 -3.187e-20)
(1.07947 -0.244387 -7.97891e-20)
(0.703745 -0.125283 -5.26413e-20)
(0.161741 0.131579 -1.04815e-19)
(-0.340819 0.449761 -6.73039e-21)
(1.15193 2.98436e-05 -9.33484e-21)
(1.1521 8.09789e-05 2.2752e-23)
(1.15219 0.000148265 -1.02123e-20)
(1.15227 0.000208381 0)
(1.15233 0.000276933 -1.64335e-25)
(1.15238 0.000338574 1.12212e-20)
(1.15243 0.000406385 -1.67583e-25)
(1.15247 0.000469264 5.64981e-21)
(1.15251 0.000535694 -5.5205e-21)
(1.15255 0.000598549 5.27297e-21)
(1.15259 0.000662762 -2.35105e-26)
(1.15263 0.000723952 8.60285e-21)
(1.15266 0.000784714 1.22549e-25)
(1.1527 0.000842307 -1.21735e-21)
(1.15275 0.000897927 1.05872e-21)
(1.15279 0.000949742 -3.37048e-22)
(1.15284 0.000998125 -1.41682e-23)
(1.1529 0.00104176 -2.73625e-21)
(1.15296 0.00108054 -2.16721e-21)
(1.15302 0.00111345 -3.14184e-21)
(1.1531 0.00114011 4.2826e-21)
(1.15318 0.00115972 5.59773e-21)
(1.15328 0.0011718 0)
(1.15338 0.0011757 -1.79915e-20)
(1.1535 0.00117092 5.55924e-21)
(1.15364 0.00115695 0)
(1.15379 0.00113335 0)
(1.15396 0.00109967 0)
(1.15415 0.00105551 1.18388e-23)
(1.15436 0.00100044 -2.64116e-23)
(1.15459 0.00093402 -1.45805e-24)
(1.15485 0.000855686 1.03361e-23)
(1.15514 0.000764756 1.05502e-20)
(1.15546 0.000660374 4.96373e-23)
(1.1558 0.000541409 -5.25839e-23)
(1.15619 0.000406387 -6.48999e-23)
(1.1566 0.000253431 -5.1442e-24)
(1.15706 8.01594e-05 -1.03704e-20)
(1.15755 -0.000116347 1.17475e-20)
(1.15809 -0.000339684 1.33964e-20)
(1.15867 -0.000594034 2.99098e-20)
(1.1593 -0.000884289 1.70563e-20)
(1.15998 -0.0012161 -9.52089e-21)
(1.16071 -0.00159559 0)
(1.1615 -0.00202965 0)
(1.16234 -0.00252535 1.3338e-20)
(1.16326 -0.00309016 -1.50974e-20)
(1.16424 -0.00373164 -1.62576e-20)
(1.16529 -0.00445703 9.14544e-21)
(1.16643 -0.00527326 -6.82769e-23)
(1.16767 -0.00618656 -7.11416e-22)
(1.169 -0.00720221 -2.3739e-20)
(1.17045 -0.0083244 -1.3322e-20)
(1.17202 -0.00955577 -1.46491e-20)
(1.17374 -0.0108979 0)
(1.17562 -0.0123507 0)
(1.17769 -0.0139126 -1.83314e-20)
(1.17997 -0.0155812 0)
(1.18251 -0.017353 1.0389e-20)
(1.18533 -0.0192247 1.40195e-22)
(1.1885 -0.0211925 1.47372e-21)
(1.19207 -0.023256 4.62833e-21)
(1.1961 -0.0254166 -5.91175e-23)
(1.20069 -0.0276815 1.74727e-21)
(1.20593 -0.0300652 7.38651e-21)
(1.21195 -0.0325956 -9.83887e-21)
(1.21888 -0.0353163 -8.55452e-21)
(1.2269 -0.0382942 1.1837e-20)
(1.2362 -0.0416332 -7.83749e-21)
(1.24701 -0.0454791 6.12305e-21)
(1.25959 -0.0500431 0)
(1.27421 -0.0556332 8.78862e-21)
(1.29114 -0.0626677 6.22415e-21)
(1.3107 -0.0717194 -2.07363e-20)
(1.33318 -0.0835629 0)
(1.3588 -0.0992723 0)
(1.38709 -0.120337 1.81683e-20)
(1.41563 -0.148621 -1.84327e-20)
(1.43841 -0.18533 4.59398e-21)
(1.44399 -0.229213 3.86583e-20)
(1.41409 -0.274278 2.44203e-20)
(1.32739 -0.306284 -2.5605e-20)
(1.16047 -0.30423 4.22258e-20)
(0.895283 -0.243356 1.19334e-19)
(0.502673 -0.0884449 5.59348e-20)
(-0.0110691 0.191378 -1.7202e-20)
(1.15193 2.97613e-05 7.08226e-26)
(1.1521 8.16939e-05 -9.73855e-21)
(1.15219 0.000149523 0)
(1.15227 0.000210053 1.60404e-25)
(1.15233 0.00027906 -1.10199e-20)
(1.15238 0.000341095 -1.12206e-20)
(1.15243 0.000409337 1.77474e-25)
(1.15247 0.000472619 1.38655e-23)
(1.15251 0.000539484 3.20944e-25)
(1.15255 0.000602773 5.29587e-21)
(1.15259 0.000667437 4.90141e-21)
(1.15263 0.000729073 -8.61598e-21)
(1.15267 0.000790298 2.45385e-25)
(1.15271 0.000848337 -1.03104e-25)
(1.15275 0.000904397 -5.26734e-22)
(1.1528 0.000956627 -1.09277e-26)
(1.15284 0.00100539 -1.39417e-23)
(1.1529 0.00104934 -2.77573e-21)
(1.15296 0.00108838 -4.48569e-25)
(1.15303 0.00112143 6.29945e-21)
(1.1531 0.00114812 2.3623e-23)
(1.15318 0.00116759 5.65217e-21)
(1.15328 0.00117935 0)
(1.15338 0.00118269 9.01585e-21)
(1.1535 0.00117708 -5.55923e-21)
(1.15364 0.00116196 0)
(1.15379 0.00113684 0)
(1.15396 0.00110123 1.00763e-23)
(1.15414 0.00105466 -1.06774e-23)
(1.15435 0.00099665 0)
(1.15459 0.000926682 3.23935e-23)
(1.15484 0.000844155 9.13009e-21)
(1.15513 0.000748319 0)
(1.15544 0.000638247 -1.22246e-20)
(1.15579 0.000512744 0)
(1.15617 0.000370275 1.60204e-20)
(1.15658 0.000208944 0)
(1.15703 2.62639e-05 -8.00965e-24)
(1.15752 -0.000180696 -1.18466e-20)
(1.15805 -0.000415513 1.3396e-20)
(1.15862 -0.000682526 -1.50101e-20)
(1.15924 -0.000986483 1.36249e-22)
(1.1599 -0.00133313 -2.97182e-22)
(1.16062 -0.00172853 1.61899e-22)
(1.16139 -0.00217945 1.19014e-20)
(1.16222 -0.0026931 -1.37602e-20)
(1.16311 -0.00327675 4.53637e-23)
(1.16406 -0.00393801 1.64789e-20)
(1.16509 -0.00468427 -9.16694e-21)
(1.16619 -0.00552216 -9.48033e-21)
(1.16738 -0.00645828 -1.03169e-20)
(1.16867 -0.0074982 1.1442e-20)
(1.17006 -0.0086463 1.33803e-22)
(1.17157 -0.00990598 0)
(1.17323 -0.0112797 9.86923e-22)
(1.17503 -0.0127686 -9.40766e-21)
(1.17702 -0.0143727 9.1039e-21)
(1.17922 -0.0160916 0)
(1.18165 -0.0179249 -1.03834e-20)