/*--------------------------------*- C++ -*----------------------------------*\
  =========                 |
  \\      /  F ield         | OpenFOAM: The Open Source CFD Toolbox
   \\    /   O peration     | Website:  https://openfoam.org
    \\  /    A nd           | Version:  9
     \\/     M anipulation  |
\*---------------------------------------------------------------------------*/
FoamFile
{
    format      ascii;
    class       volScalarField;
    location    "3000";
    object      gammaInt;
}
// * * * * * * * * * * * * * * * * * * * * * * * * * * * * * * * * * * * * * //

dimensions      [0 0 0 0 0 0 0];

internalField   nonuniform List<scalar> 
13446
(
0.999887
0.999896
0.999727
0.999904
0.999746
0.999625
0.999536
0.999472
0.999911
0.999763
0.999648
0.999565
0.999506
0.999459
0.999918
0.999778
0.999671
0.999595
0.99954
0.999491
0.999442
0.999924
0.999792
0.999694
0.999626
0.999572
0.999519
0.999466
0.999418
0.99938
0.999348
0.999321
0.999296
0.999272
0.999249
0.999226
0.999204
0.99918
0.999156
0.999131
0.999105
0.999078
0.99905
0.99902
0.998989
0.998956
0.998922
0.998886
0.998849
0.998811
0.998772
0.998733
0.999928
0.999806
0.99972
0.999657
0.999599
0.99954
0.999485
0.99944
0.999403
0.999373
0.999347
0.999322
0.999298
0.999275
0.999252
0.999229
0.999206
0.999182
0.999157
0.999131
0.999104
0.999076
0.999047
0.999016
0.998984
0.99895
0.998915
0.998879
0.998841
0.998803
0.998763
0.998724
0.998685
0.996799
0.996773
0.996711
0.996633
0.996549
0.996464
0.996371
0.996279
0.996189
0.996091
0.995998
0.995896
0.995797
0.995675
0.995599
0.995395
0.995453
0.994815
0.994589
0.992525
0.988439
0.98005
0.948053
0.889423
0.493018
0.0649993
0.999932
0.999822
0.999747
0.999685
0.999619
0.999556
0.999503
0.999461
0.999428
0.999399
0.999373
0.999348
0.999324
0.999301
0.999278
0.999254
0.999231
0.999207
0.999182
0.999157
0.99913
0.999103
0.999074
0.999043
0.999012
0.998979
0.998945
0.998909
0.998872
0.998835
0.998796
0.998756
0.998715
0.998676
0.996951
0.99692
0.99686
0.996788
0.99671
0.996628
0.996545
0.996457
0.996371
0.996282
0.996193
0.996102
0.99601
0.99592
0.995808
0.995743
0.995583
0.995614
0.995097
0.99487
0.993152
0.989307
0.98249
0.952703
0.90102
0.510302
0.0680359
0.999935
0.999843
0.999775
0.999704
0.999631
0.99957
0.999522
0.999485
0.999453
0.999425
0.999398
0.999373
0.999349
0.999325
0.999302
0.999279
0.999256
0.999232
0.999207
0.999182
0.999156
0.999129
0.9991
0.99907
0.999039
0.999007
0.998973
0.998939
0.998903
0.998865
0.998827
0.998788
0.998748
0.998708
0.998668
0.998628
0.997105
0.997066
0.997007
0.99694
0.99687
0.996796
0.996716
0.996637
0.996555
0.996471
0.996392
0.996307
0.996226
0.996133
0.996044
0.995962
0.995911
0.995774
0.995788
0.995376
0.995144
0.993752
0.990157
0.984805
0.957327
0.912631
0.527647
0.0712206
0.999938
0.999872
0.999795
0.999711
0.99964
0.999586
0.999544
0.99951
0.999478
0.999449
0.999422
0.999397
0.999373
0.999349
0.999326
0.999303
0.99928
0.999256
0.999232
0.999207
0.999181
0.999154
0.999126
0.999097
0.999066
0.999035
0.999002
0.998967
0.998932
0.998896
0.998858
0.99882
0.998781
0.998741
0.9987
0.998659
0.99862
0.997496
0.997477
0.997444
0.997402
0.997356
0.997309
0.997258
0.997205
0.997145
0.997082
0.997019
0.996952
0.996882
0.996807
0.99673
0.996651
0.99657
0.996495
0.996418
0.99634
0.996259
0.996179
0.996102
0.996062
0.99596
0.995942
0.995634
0.995398
0.994323
0.990964
0.987059
0.961787
0.923775
0.546245
0.0748949
0.999943
0.999896
0.999796
0.999713
0.999653
0.999607
0.999568
0.999533
0.999501
0.999472
0.999446
0.99942
0.999396
0.999373
0.99935
0.999327
0.999303
0.99928
0.999256
0.999231
0.999205
0.999179
0.999151
0.999122
0.999093
0.999061
0.999029
0.998996
0.998961
0.998925
0.998889
0.998851
0.998813
0.998773
0.998734
0.998693
0.998652
0.998613
0.998573
0.997609
0.997583
0.997547
0.997504
0.997461
0.997418
0.997373
0.997325
0.997272
0.997218
0.997161
0.997103
0.997038
0.996965
0.996893
0.996825
0.996752
0.996681
0.9966
0.996529
0.996452
0.996379
0.996313
0.996253
0.996215
0.996118
0.996104
0.995884
0.995645
0.99484
0.991741
0.989162
0.96602
0.935288
0.564909
0.0790651
0.999951
0.999857
0.999782
0.999723
0.999673
0.999629
0.99959
0.999555
0.999523
0.999495
0.999468
0.999443
0.999419
0.999396
0.999373
0.99935
0.999326
0.999303
0.999279
0.999254
0.999229
0.999203
0.999176
0.999148
0.999118
0.999088
0.999056
0.999024
0.99899
0.998955
0.998919
0.998882
0.998844
0.998805
0.998766
0.998727
0.998687
0.998646
0.998606
0.998566
0.998528
0.997875
0.997839
0.99781
0.997782
0.997752
0.997718
0.997683
0.997645
0.997605
0.997567
0.997529
0.997488
0.997445
0.997398
0.997349
0.997297
0.997241
0.997183
0.99712
0.997056
0.996991
0.996921
0.99685
0.996781
0.996716
0.99665
0.99657
0.9965
0.996438
0.996405
0.996363
0.996301
0.996266
0.996115
0.995879
0.99535
0.992471
0.991104
0.970082
0.945889
0.584303
0.0838262
0.999953
0.999871
0.999802
0.999743
0.999692
0.999647
0.999609
0.999575
0.999544
0.999516
0.99949
0.999465
0.999441
0.999418
0.999395
0.999372
0.999349
0.999326
0.999302
0.999278
0.999252
0.999227
0.9992
0.999172
0.999143
0.999114
0.999083
0.999051
0.999018
0.998983
0.998948
0.998912
0.998875
0.998837
0.998799
0.99876
0.99872
0.998681
0.998641
0.998601
0.998561
0.998522
0.998483
0.998444
0.998406
0.997923
0.997892
0.997866
0.997837
0.997806
0.997772
0.997737
0.997701
0.997666
0.997631
0.997594
0.997556
0.997516
0.997472
0.997425
0.997377
0.997321
0.997263
0.997203
0.99714
0.997077
0.997016
0.996958
0.996889
0.996824
0.996757
0.99669
0.996632
0.996586
0.996546
0.996508
0.99645
0.996411
0.996326
0.996102
0.995817
0.993127
0.99296
0.973822
0.956209
0.604289
0.0889637
0.999957
0.999879
0.999812
0.999755
0.999707
0.999665
0.999628
0.999595
0.999565
0.999537
0.999511
0.999486
0.999463
0.99944
0.999417
0.999394
0.999371
0.999348
0.999324
0.9993
0.999275
0.99925
0.999223
0.999196
0.999168
0.999139
0.999109
0.999077
0.999045
0.999011
0.998977
0.998942
0.998905
0.998868
0.998831
0.998792
0.998754
0.998715
0.998675
0.998636
0.998597
0.998557
0.998518
0.99848
0.998441
0.998404
0.998368
0.997976
0.997951
0.997923
0.997893
0.997861
0.997828
0.997796
0.997763
0.99773
0.997697
0.997662
0.997627
0.997587
0.997546
0.997502
0.997455
0.997403
0.997347
0.997285
0.997228
0.99717
0.99711
0.997049
0.996989
0.996937
0.996872
0.996805
0.996753
0.996719
0.996691
0.99665
0.996607
0.996558
0.996548
0.996327
0.99627
0.99374
0.994594
0.976976
0.966267
0.623503
0.0943572
0.99996
0.999886
0.999823
0.999769
0.999723
0.999682
0.999646
0.999614
0.999584
0.999557
0.999531
0.999507
0.999484
0.999461
0.999438
0.999416
0.999393
0.99937
0.999346
0.999322
0.999298
0.999273
0.999247
0.99922
0.999192
0.999163
0.999134
0.999103
0.999071
0.999039
0.999005
0.998971
0.998935
0.998899
0.998862
0.998825
0.998787
0.998748
0.99871
0.998671
0.998632
0.998593
0.998555
0.998517
0.998479
0.998441
0.998404
0.998369
0.998333
0.998298
0.998264
0.998229
0.998196
0.998163
0.99813
0.998099
0.998067
0.998037
0.998006
0.997975
0.997944
0.997913
0.997883
0.997853
0.997822
0.997791
0.99776
0.997729
0.997696
0.997661
0.997622
0.99758
0.997533
0.997482
0.997428
0.997376
0.997323
0.997263
0.997205
0.997148
0.997089
0.997031
0.996982
0.996923
0.996884
0.996843
0.996819
0.996775
0.996754
0.99672
0.996755
0.996539
0.996658
0.994251
0.995897
0.979614
0.974449
0.643253
0.100478
0.999962
0.999893
0.999834
0.999782
0.999738
0.999698
0.999663
0.999632
0.999603
0.999576
0.999551
0.999527
0.999504
0.999481
0.999459
0.999437
0.999414
0.999391
0.999368
0.999344
0.99932
0.999295
0.999269
0.999243
0.999216
0.999188
0.999159
0.999129
0.999098
0.999066
0.999033
0.998999
0.998964
0.998929
0.998893
0.998856
0.998819
0.998781
0.998743
0.998705
0.998667
0.998629
0.998591
0.998553
0.998516
0.998479
0.998443
0.998407
0.998371
0.998336
0.998302
0.998269
0.998236
0.998205
0.998173
0.998142
0.998112
0.998082
0.998053
0.998024
0.997995
0.997967
0.997939
0.99791
0.997882
0.997854
0.997826
0.997797
0.997768
0.997734
0.997696
0.997655
0.99761
0.997563
0.997513
0.997462
0.99741
0.997358
0.997304
0.997245
0.99719
0.997133
0.997076
0.997037
0.997012
0.996987
0.996946
0.996913
0.9969
0.996898
0.996923
0.996714
0.996977
0.994645
0.996882
0.981282
0.981903
0.661218
0.106804
0.999965
0.9999
0.999844
0.999795
0.999752
0.999714
0.99968
0.999649
0.999621
0.999595
0.99957
0.999547
0.999524
0.999501
0.999479
0.999457
0.999435
0.999412
0.999389
0.999366
0.999342
0.999317
0.999292
0.999266
0.999239
0.999211
0.999183
0.999153
0.999123
0.999092
0.99906
0.999027
0.998993
0.998959
0.998923
0.998887
0.998851
0.998814
0.998777
0.998739
0.998702
0.998664
0.998627
0.99859
0.998553
0.998516
0.998481
0.998445
0.998411
0.998377
0.998343
0.998311
0.998279
0.998247
0.998216
0.998187
0.998158
0.998129
0.998102
0.998074
0.998046
0.99802
0.997993
0.997967
0.997942
0.997916
0.99789
0.997864
0.997835
0.997804
0.99777
0.997731
0.997691
0.997646
0.997599
0.997551
0.997499
0.997447
0.997397
0.997343
0.997292
0.997245
0.997194
0.997154
0.997121
0.997106
0.99708
0.997054
0.997041
0.997008
0.997086
0.996848
0.997236
0.994959
0.997242
0.982078
0.986618
0.678419
0.114207
0.999967
0.999906
0.999853
0.999806
0.999765
0.999729
0.999696
0.999666
0.999639
0.999613
0.999589
0.999566
0.999543
0.999521
0.999499
0.999477
0.999455
0.999433
0.99941
0.999387
0.999363
0.999339
0.999314
0.999288
0.999262
0.999235
0.999207
0.999178
0.999148
0.999118
0.999086
0.999054
0.999021
0.998988
0.998953
0.998918
0.998882
0.998846
0.99881
0.998773
0.998736
0.998699
0.998662
0.998626
0.998589
0.998553
0.998518
0.998483
0.998449
0.998415
0.998383
0.998351
0.998319
0.998289
0.998259
0.998231
0.998203
0.998175
0.998148
0.998122
0.998096
0.998071
0.998047
0.998022
0.997998
0.997975
0.997952
0.997928
0.997903
0.997873
0.997841
0.997804
0.997765
0.997722
0.997679
0.997634
0.997589
0.997536
0.997484
0.997434
0.997383
0.997333
0.997289
0.997258
0.997235
0.997201
0.997171
0.997156
0.997163
0.997143
0.997221
0.996958
0.997471
0.995152
0.997344
0.981514
0.988835
0.693102
0.122676
0.999969
0.999912
0.999862
0.999818
0.999778
0.999743
0.999712
0.999683
0.999656
0.999631
0.999607
0.999584
0.999562
0.99954
0.999518
0.999497
0.999475
0.999453
0.99943
0.999407
0.999384
0.99936
0.999335
0.99931
0.999284
0.999257
0.99923
0.999202
0.999173
0.999143
0.999112
0.999081
0.999049
0.999016
0.998982
0.998948
0.998913
0.998878
0.998842
0.998806
0.99877
0.998733
0.998697
0.998661
0.998625
0.99859
0.998555
0.998521
0.998487
0.998454
0.998422
0.99839
0.998359
0.99833
0.998301
0.998273
0.998246
0.998219
0.998193
0.998168
0.998144
0.998121
0.998098
0.998075
0.998054
0.998033
0.998012
0.997991
0.997966
0.997938
0.997906
0.997872
0.997837
0.9978
0.997759
0.997711
0.997664
0.997617
0.997571
0.997523
0.997484
0.997448
0.997411
0.997372
0.99734
0.997312
0.997293
0.997282
0.997287
0.997254
0.997324
0.997085
0.997609
0.995212
0.997493
0.979914
0.987701
0.704409
0.133248
0.999971
0.999918
0.99987
0.999828
0.999791
0.999757
0.999727
0.999698
0.999672
0.999648
0.999625
0.999602
0.99958
0.999559
0.999537
0.999516
0.999494
0.999473
0.99945
0.999428
0.999404
0.999381
0.999356
0.999332
0.999306
0.99928
0.999253
0.999225
0.999197
0.999168
0.999138
0.999107
0.999076
0.999043
0.999011
0.998977
0.998943
0.998908
0.998873
0.998838
0.998802
0.998767
0.998731
0.998695
0.99866
0.998625
0.998591
0.998557
0.998524
0.998491
0.998459
0.998428
0.998398
0.998369
0.998341
0.998313
0.998286
0.998261
0.998236
0.998213
0.99819
0.998167
0.998146
0.998126
0.998106
0.998085
0.998066
0.998045
0.998022
0.997997
0.99797
0.99794
0.997906
0.997867
0.997826
0.997786
0.997744
0.997699
0.997654
0.997614
0.997571
0.997528
0.997489
0.997455
0.997421
0.997379
0.997362
0.997377
0.997392
0.997356
0.997401
0.997158
0.997713
0.995392
0.997485
0.977552
0.982046
0.713067
0.147413
0.999973
0.999923
0.999878
0.999838
0.999803
0.99977
0.999741
0.999714
0.999688
0.999664
0.999642
0.99962
0.999598
0.999577
0.999556
0.999535
0.999513
0.999492
0.99947
0.999447
0.999425
0.999401
0.999377
0.999353
0.999328
0.999302
0.999275
0.999248
0.99922
0.999192
0.999163
0.999133
0.999102
0.99907
0.999038
0.999005
0.998972
0.998938
0.998903
0.998869
0.998834
0.998799
0.998764
0.998728
0.998694
0.998659
0.998625
0.998591
0.998558
0.998526
0.998495
0.998464
0.998434
0.998405
0.998377
0.99835
0.998324
0.998299
0.998275
0.998252
0.99823
0.998209
0.998189
0.998169
0.998149
0.99813
0.998111
0.998092
0.998073
0.998051
0.998025
0.997996
0.997961
0.997926
0.997891
0.997851
0.99781
0.997771
0.997733
0.997686
0.997641
0.997592
0.997561
0.997531
0.997505
0.997484
0.997476
0.997466
0.997433
0.99738
0.997449
0.997316
0.997818
0.995658
0.996886
0.975547
0.975198
0.722801
0.16558
0.999975
0.999928
0.999886
0.999848
0.999814
0.999783
0.999755
0.999729
0.999704
0.999681
0.999658
0.999637
0.999616
0.999595
0.999574
0.999553
0.999532
0.999511
0.999489
0.999467
0.999444
0.999421
0.999398
0.999374
0.999349
0.999323
0.999297
0.999271
0.999243
0.999215
0.999187
0.999157
0.999127
0.999096
0.999064
0.999032
0.998999
0.998966
0.998932
0.998898
0.998864
0.998829
0.998794
0.99876
0.998725
0.998691
0.998657
0.998623
0.99859
0.998558
0.998527
0.998496
0.998466
0.998437
0.998409
0.998383
0.998357
0.998332
0.998309
0.998286
0.998264
0.998244
0.998223
0.998203
0.998184
0.998167
0.998149
0.998133
0.998115
0.998094
0.998069
0.998041
0.998011
0.997979
0.997941
0.997903
0.997867
0.997824
0.997784
0.997739
0.9977
0.997673
0.997636
0.997587
0.997554
0.997536
0.997542
0.997554
0.99752
0.99749
0.997504
0.997341
0.997861
0.995955
0.996367
0.976446
0.968297
0.749
0.187004
0.999977
0.999933
0.999893
0.999858
0.999825
0.999796
0.999768
0.999743
0.999719
0.999696
0.999675
0.999653
0.999633
0.999612
0.999592
0.999571
0.99955
0.999529
0.999508
0.999486
0.999464
0.999441
0.999418
0.999394
0.99937
0.999345
0.999319
0.999293
0.999266
0.999238
0.99921
0.999181
0.999151
0.999121
0.99909
0.999058
0.999025
0.998993
0.998959
0.998925
0.998891
0.998857
0.998822
0.998788
0.998753
0.998719
0.998685
0.998651
0.998618
0.998586
0.998554
0.998523
0.998493
0.998464
0.998436
0.998409
0.998383
0.998358
0.998334
0.998311
0.998288
0.998267
0.998247
0.998227
0.998209
0.998191
0.998174
0.998157
0.998138
0.998118
0.998093
0.998066
0.99804
0.998008
0.997976
0.997942
0.997902
0.997861
0.997819
0.997783
0.997749
0.997708
0.997672
0.997645
0.99762
0.997598
0.997579
0.997549
0.997507
0.997481
0.997543
0.997462
0.997828
0.99646
0.996244
0.981416
0.966069
0.811355
0.210485
0.999978
0.999938
0.999901
0.999867
0.999836
0.999808
0.999782
0.999757
0.999734
0.999712
0.99969
0.99967
0.999649
0.999629
0.999609
0.999589
0.999568
0.999548
0.999527
0.999505
0.999483
0.999461
0.999438
0.999414
0.99939
0.999365
0.99934
0.999314
0.999287
0.99926
0.999232
0.999203
0.999174
0.999143
0.999113
0.999081
0.999049
0.999016
0.998983
0.99895
0.998915
0.998881
0.998847
0.998812
0.998777
0.998743
0.998708
0.998674
0.998641
0.998607
0.998575
0.998543
0.998513
0.998483
0.998454
0.998425
0.998398
0.998372
0.998346
0.998322
0.998299
0.998277
0.998256
0.998235
0.998215
0.998195
0.998177
0.998157
0.998139
0.998121
0.998102
0.998076
0.998047
0.998019
0.997986
0.997948
0.997912
0.997877
0.997844
0.997812
0.997773
0.997738
0.997701
0.997648
0.997618
0.997607
0.997614
0.997621
0.997632
0.997616
0.997601
0.997502
0.997676
0.996801
0.996355
0.988616
0.969342
0.914399
0.238832
0.99998
0.999942
0.999908
0.999876
0.999847
0.99982
0.999794
0.999771
0.999748
0.999727
0.999706
0.999685
0.999666
0.999646
0.999626
0.999606
0.999586
0.999566
0.999545
0.999524
0.999502
0.99948
0.999457
0.999433
0.999409
0.999385
0.99936
0.999334
0.999307
0.99928
0.999252
0.999224
0.999194
0.999164
0.999134
0.999102
0.99907
0.999037
0.999004
0.99897
0.998936
0.998901
0.998866
0.998831
0.998796
0.99876
0.998725
0.99869
0.998655
0.998621
0.998588
0.998555
0.998522
0.99849
0.998459
0.99843
0.9984
0.998372
0.998345
0.998319
0.998293
0.998268
0.998244
0.998221
0.9982
0.998179
0.998158
0.998138
0.998119
0.998101
0.998079
0.998056
0.998027
0.997993
0.99796
0.997927
0.997893
0.997857
0.997816
0.997773
0.997737
0.997691
0.997651
0.997633
0.997613
0.997586
0.997558
0.997552
0.997556
0.997533
0.997467
0.997377
0.997539
0.997162
0.996525
0.994291
0.97629
1.00596
0.286546
0.999982
0.999947
0.999914
0.999885
0.999857
0.999831
0.999807
0.999784
0.999762
0.999741
0.999721
0.999701
0.999681
0.999662
0.999643
0.999623
0.999603
0.999583
0.999562
0.999541
0.99952
0.999498
0.999475
0.999452
0.999428
0.999404
0.999378
0.999353
0.999326
0.999299
0.999271
0.999242
0.999213
0.999183
0.999152
0.99912
0.999088
0.999055
0.999021
0.998986
0.998952
0.998916
0.99888
0.998844
0.998808
0.998771
0.998735
0.998698
0.998662
0.998626
0.998591
0.998556
0.998521
0.998487
0.998454
0.998422
0.99839
0.998359
0.99833
0.998301
0.998273
0.998246
0.99822
0.998195
0.998169
0.998145
0.998122
0.9981
0.998078
0.998054
0.99803
0.998006
0.997978
0.997949
0.997914
0.997877
0.997842
0.997803
0.99777
0.997736
0.997693
0.997664
0.997625
0.997582
0.997556
0.997537
0.997505
0.997456
0.997416
0.997452
0.997481
0.99755
0.997605
0.997508
0.996271
0.996878
0.978281
1.04036
0.358783
0.999983
0.999951
0.999921
0.999893
0.999867
0.999842
0.999819
0.999797
0.999776
0.999756
0.999736
0.999716
0.999697
0.999678
0.999659
0.999639
0.99962
0.9996
0.99958
0.999559
0.999537
0.999515
0.999493
0.99947
0.999446
0.999421
0.999396
0.99937
0.999344
0.999316
0.999288
0.999259
0.99923
0.999199
0.999168
0.999136
0.999103
0.999069
0.999034
0.998999
0.998963
0.998927
0.99889
0.998853
0.998815
0.998777
0.998739
0.998701
0.998663
0.998625
0.998587
0.99855
0.998513
0.998476
0.99844
0.998405
0.998371
0.998337
0.998305
0.998273
0.998242
0.998211
0.998181
0.998152
0.998124
0.998096
0.998067
0.998039
0.998011
0.997983
0.997954
0.997926
0.997897
0.997868
0.997837
0.997803
0.997763
0.997727
0.997686
0.997645
0.997608
0.997562
0.997527
0.99749
0.99745
0.997427
0.997378
0.997348
0.997343
0.997353
0.997362
0.997414
0.9974
0.997382
0.996123
0.996378
0.980395
1.02501
0.470336
0.999985
0.999955
0.999927
0.999901
0.999877
0.999853
0.999831
0.99981
0.999789
0.999769
0.99975
0.999731
0.999712
0.999693
0.999674
0.999655
0.999636
0.999616
0.999596
0.999575
0.999554
0.999532
0.99951
0.999487
0.999463
0.999438
0.999413
0.999387
0.99936
0.999333
0.999304
0.999275
0.999245
0.999214
0.999182
0.99915
0.999116
0.999081
0.999046
0.99901
0.998973
0.998936
0.998898
0.998859
0.99882
0.998781
0.998741
0.998701
0.998661
0.998621
0.998582
0.998542
0.998503
0.998465
0.998427
0.998389
0.998352
0.998316
0.99828
0.998245
0.998211
0.998178
0.998145
0.998113
0.998081
0.998049
0.998018
0.997987
0.997957
0.997925
0.997893
0.99786
0.997824
0.997787
0.997748
0.997709
0.997671
0.997626
0.997582
0.99754
0.997499
0.997452
0.997405
0.997373
0.99733
0.997294
0.997258
0.99726
0.997237
0.997222
0.997234
0.9973
0.997376
0.9975
0.996615
0.99599
0.986892
1.00956
0.600785
0.999986
0.999959
0.999934
0.999909
0.999886
0.999864
0.999843
0.999822
0.999802
0.999783
0.999764
0.999745
0.999726
0.999707
0.999689
0.99967
0.99965
0.999631
0.999611
0.99959
0.999569
0.999547
0.999525
0.999502
0.999478
0.999453
0.999428
0.999402
0.999375
0.999347
0.999318
0.999289
0.999258
0.999227
0.999195
0.999161
0.999127
0.999092
0.999056
0.999019
0.998981
0.998943
0.998904
0.998864
0.998824
0.998783
0.998742
0.998701
0.99866
0.998618
0.998577
0.998536
0.998495
0.998455
0.998416
0.998377
0.998338
0.998301
0.998264
0.998228
0.998192
0.998158
0.998124
0.99809
0.998055
0.998018
0.99798
0.997939
0.997897
0.997854
0.997809
0.997763
0.997716
0.997668
0.997621
0.997572
0.997521
0.997471
0.997422
0.997374
0.997329
0.997286
0.997248
0.997214
0.997183
0.997166
0.997153
0.997133
0.997121
0.997108
0.99713
0.997139
0.997257
0.997432
0.996493
0.996276
0.990704
1.00487
0.563941
0.999988
0.999963
0.99994
0.999917
0.999895
0.999874
0.999854
0.999834
0.999814
0.999795
0.999776
0.999758
0.999739
0.99972
0.999701
0.999682
0.999663
0.999643
0.999622
0.999601
0.99958
0.999558
0.999535
0.999512
0.999487
0.999462
0.999436
0.99941
0.999382
0.999353
0.999324
0.999293
0.999262
0.999229
0.999196
0.999161
0.999126
0.999089
0.999052
0.999013
0.998974
0.998933
0.998893
0.998851
0.998809
0.998766
0.998723
0.99868
0.998636
0.998593
0.998549
0.998506
0.998464
0.998421
0.99838
0.998339
0.998298
0.998258
0.99822
0.998182
0.998142
0.998101
0.998059
0.998016
0.997969
0.997921
0.997873
0.997825
0.997773
0.997719
0.997663
0.997605
0.99755
0.997492
0.997431
0.997374
0.997314
0.997255
0.997204
0.997151
0.997098
0.997048
0.997021
0.99699
0.996974
0.99697
0.996981
0.996987
0.996995
0.996998
0.997044
0.997159
0.99722
0.99752
0.99714
0.996519
0.994384
0.994862
0.44541
0.999989
0.999967
0.999946
0.999925
0.999904
0.999884
0.999865
0.999845
0.999826
0.999807
0.999788
0.999769
0.999751
0.999731
0.999712
0.999693
0.999673
0.999652
0.999631
0.999609
0.999587
0.999564
0.99954
0.999516
0.999491
0.999464
0.999437
0.999409
0.99938
0.99935
0.999319
0.999287
0.999254
0.999219
0.999184
0.999147
0.999109
0.999071
0.999031
0.99899
0.998947
0.998904
0.998861
0.998816
0.998771
0.998725
0.998678
0.998631
0.998584
0.998537
0.99849
0.998443
0.998396
0.99835
0.998304
0.998258
0.998214
0.99817
0.998126
0.998084
0.998041
0.997996
0.99795
0.997904
0.997855
0.997804
0.99775
0.997694
0.997638
0.997583
0.997523
0.997462
0.997397
0.997333
0.99727
0.997201
0.997138
0.997074
0.99701
0.996957
0.99691
0.996877
0.996829
0.996798
0.996789
0.996783
0.996782
0.996782
0.996836
0.996929
0.99701
0.997121
0.997355
0.997502
0.997187
0.996467
0.996618
0.991127
0.372769
0.99999
0.999971
0.999952
0.999933
0.999914
0.999895
0.999876
0.999857
0.999838
0.999819
0.9998
0.999781
0.999762
0.999742
0.999722
0.999702
0.999681
0.99966
0.999638
0.999615
0.999592
0.999568
0.999543
0.999517
0.999491
0.999463
0.999434
0.999405
0.999374
0.999342
0.999309
0.999275
0.99924
0.999204
0.999166
0.999127
0.999087
0.999045
0.999002
0.998958
0.998913
0.998867
0.99882
0.998773
0.998724
0.998675
0.998625
0.998574
0.998523
0.998472
0.998421
0.99837
0.998319
0.998268
0.998218
0.998168
0.998118
0.998068
0.99802
0.997972
0.997925
0.997878
0.997831
0.997782
0.997731
0.997678
0.997624
0.997567
0.997508
0.997447
0.997386
0.997324
0.997261
0.997198
0.997132
0.997069
0.997002
0.996939
0.996876
0.996812
0.996756
0.996704
0.996668
0.996644
0.996621
0.996624
0.996634
0.996667
0.996701
0.996756
0.996878
0.996964
0.997193
0.997211
0.997172
0.996748
0.99603
0.989827
0.326749
0.999992
0.999975
0.999958
0.99994
0.999923
0.999905
0.999886
0.999868
0.999849
0.999831
0.999812
0.999792
0.999773
0.999753
0.999732
0.999711
0.999689
0.999667
0.999644
0.99962
0.999596
0.99957
0.999544
0.999517
0.999489
0.99946
0.99943
0.999398
0.999366
0.999332
0.999298
0.999262
0.999224
0.999186
0.999146
0.999104
0.999062
0.999018
0.998973
0.998926
0.998879
0.99883
0.99878
0.998729
0.998678
0.998625
0.998572
0.998519
0.998465
0.99841
0.998355
0.998301
0.998246
0.998191
0.998137
0.998083
0.998029
0.997976
0.997923
0.997871
0.997818
0.997766
0.997716
0.997664
0.997613
0.997559
0.997504
0.997446
0.997385
0.997324
0.997261
0.997197
0.997132
0.997063
0.996998
0.996931
0.996867
0.996806
0.996742
0.996681
0.99662
0.996568
0.99653
0.996494
0.996473
0.996454
0.99648
0.996519
0.996549
0.996632
0.996761
0.996934
0.997146
0.997607
0.997094
0.996842
0.993659
0.989368
0.294987
0.999993
0.999979
0.999964
0.999948
0.999932
0.999915
0.999897
0.999879
0.999861
0.999842
0.999823
0.999804
0.999784
0.999763
0.999742
0.99972
0.999697
0.999674
0.99965
0.999625
0.999599
0.999572
0.999545
0.999516
0.999486
0.999456
0.999424
0.999391
0.999357
0.999322
0.999285
0.999247
0.999208
0.999168
0.999126
0.999082
0.999038
0.998991
0.998944
0.998895
0.998845
0.998794
0.998742
0.998689
0.998635
0.99858
0.998524
0.998468
0.998412
0.998355
0.998297
0.99824
0.998182
0.998124
0.998067
0.998009
0.997951
0.997894
0.997838
0.997782
0.997727
0.997671
0.997616
0.997562
0.997507
0.997453
0.997398
0.99734
0.997279
0.997217
0.997153
0.997086
0.997019
0.996952
0.996886
0.996817
0.996747
0.996676
0.99662
0.996566
0.996513
0.996459
0.996413
0.996372
0.996348
0.996338
0.996346
0.996376
0.99643
0.996484
0.996549
0.996748
0.997027
0.997237
0.99702
0.996927
0.993104
0.988925
0.271138
0.999995
0.999983
0.99997
0.999956
0.999941
0.999925
0.999908
0.99989
0.999872
0.999854
0.999835
0.999815
0.999794
0.999773
0.999751
0.999728
0.999705
0.99968
0.999655
0.999629
0.999602
0.999574
0.999545
0.999515
0.999484
0.999451
0.999418
0.999384
0.999348
0.999311
0.999273
0.999233
0.999192
0.99915
0.999106
0.999061
0.999014
0.998966
0.998916
0.998866
0.998814
0.998761
0.998707
0.998652
0.998596
0.998539
0.998481
0.998423
0.998365
0.998305
0.998246
0.998187
0.998127
0.998068
0.998008
0.997948
0.997889
0.997828
0.997768
0.997709
0.997651
0.997593
0.997535
0.997477
0.997419
0.99736
0.997302
0.997245
0.997187
0.997126
0.997062
0.996997
0.99693
0.996862
0.996792
0.996725
0.996659
0.996592
0.996524
0.99646
0.996405
0.996361
0.996317
0.996279
0.99625
0.996224
0.996219
0.996239
0.996292
0.996396
0.996406
0.996608
0.996907
0.997348
0.996678
0.996863
0.993591
0.987461
0.251641
0.999996
0.999987
0.999976
0.999964
0.99995
0.999935
0.999919
0.999902
0.999884
0.999865
0.999846
0.999826
0.999805
0.999783
0.99976
0.999736
0.999712
0.999686
0.99966
0.999633
0.999604
0.999575
0.999544
0.999513
0.99948
0.999447
0.999412
0.999376
0.999339
0.9993
0.99926
0.999219
0.999176
0.999132
0.999086
0.999039
0.998991
0.998941
0.99889
0.998837
0.998784
0.998729
0.998673
0.998617
0.998559
0.998501
0.998442
0.998382
0.998322
0.998262
0.998201
0.99814
0.998079
0.998018
0.997957
0.997896
0.997835
0.997774
0.997712
0.99765
0.997589
0.997528
0.997468
0.997408
0.997349
0.997289
0.997229
0.997168
0.997108
0.997047
0.996985
0.996921
0.996854
0.996786
0.996718
0.996648
0.996578
0.99651
0.996446
0.996384
0.996324
0.996272
0.996229
0.996194
0.996155
0.996143
0.996123
0.996135
0.996187
0.996261
0.996353
0.996568
0.9968
0.997258
0.996537
0.996545
0.994574
0.984472
0.234907
0.999998
0.999991
0.999982
0.999971
0.999959
0.999945
0.999929
0.999913
0.999895
0.999877
0.999857
0.999836
0.999815
0.999792
0.999769
0.999744
0.999719
0.999692
0.999665
0.999636
0.999606
0.999575
0.999544
0.999511
0.999477
0.999442
0.999405
0.999368
0.999329
0.999288
0.999247
0.999204
0.999159
0.999114
0.999066
0.999018
0.998968
0.998916
0.998864
0.99881
0.998755
0.998699
0.998641
0.998583
0.998525
0.998465
0.998405
0.998344
0.998283
0.998222
0.99816
0.998098
0.998036
0.997973
0.997911
0.997849
0.997787
0.997725
0.997663
0.997601
0.997538
0.997475
0.997413
0.997351
0.997288
0.997226
0.997165
0.997104
0.997042
0.99698
0.996919
0.996856
0.99679
0.996722
0.996654
0.996584
0.996514
0.996444
0.996376
0.99631
0.996248
0.996194
0.996157
0.996124
0.996094
0.996075
0.99607
0.996064
0.996031
0.996086
0.996213
0.9965
0.996697
0.99722
0.99655
0.996158
0.995291
0.981284
0.221023
0.999999
0.999995
0.999989
0.999979
0.999968
0.999955
0.99994
0.999924
0.999907
0.999888
0.999868
0.999847
0.999825
0.999802
0.999777
0.999752
0.999725
0.999697
0.999669
0.999639
0.999608
0.999576
0.999542
0.999508
0.999472
0.999436
0.999398
0.999359
0.999318
0.999276
0.999233
0.999189
0.999143
0.999095
0.999046
0.998996
0.998945
0.998892
0.998838
0.998782
0.998726
0.998669
0.99861
0.998551
0.998491
0.998431
0.99837
0.998308
0.998246
0.998184
0.998121
0.998059
0.997996
0.997933
0.99787
0.997807
0.997743
0.997681
0.997618
0.997555
0.997492
0.997429
0.997366
0.997302
0.997239
0.997176
0.997112
0.997048
0.996983
0.99692
0.996857
0.996795
0.996732
0.996668
0.996603
0.996536
0.996466
0.996397
0.996329
0.996268
0.996203
0.996141
0.996096
0.996062
0.99604
0.996024
0.995999
0.996011
0.99602
0.996086
0.996164
0.996446
0.996674
0.997182
0.996379
0.995687
0.995103
0.976552
0.208291
0.999999
0.999999
0.999995
0.999988
0.999977
0.999965
0.999951
0.999935
0.999918
0.999899
0.999879
0.999858
0.999835
0.999811
0.999786
0.999759
0.999731
0.999702
0.999672
0.999641
0.999609
0.999575
0.99954
0.999505
0.999468
0.99943
0.99939
0.999349
0.999307
0.999264
0.999219
0.999173
0.999125
0.999076
0.999026
0.998974
0.998921
0.998867
0.998812
0.998755
0.998697
0.998639
0.99858
0.99852
0.998459
0.998398
0.998336
0.998273
0.998211
0.998148
0.998085
0.998022
0.997959
0.997895
0.997831
0.997768
0.997704
0.99764
0.997577
0.997514
0.99745
0.997386
0.997322
0.997258
0.997193
0.997129
0.997066
0.997002
0.996938
0.996872
0.996806
0.996741
0.996677
0.996611
0.996545
0.996483
0.99642
0.996354
0.996286
0.99622
0.996153
0.996095
0.99604
0.996
0.99598
0.995974
0.995969
0.995988
0.995965
0.996019
0.996111
0.996353
0.996608
0.997132
0.99655
0.995444
0.994549
0.971159
0.197133
0.999998
0.999997
0.999997
0.999994
0.999987
0.999976
0.999962
0.999946
0.999929
0.99991
0.99989
0.999868
0.999844
0.99982
0.999793
0.999766
0.999737
0.999707
0.999675
0.999643
0.999609
0.999574
0.999538
0.999501
0.999462
0.999423
0.999382
0.999339
0.999296
0.999251
0.999204
0.999157
0.999108
0.999057
0.999005
0.998952
0.998898
0.998842
0.998785
0.998728
0.998669
0.99861
0.998549
0.998488
0.998427
0.998365
0.998303
0.99824
0.998177
0.998113
0.99805
0.997986
0.997922
0.997859
0.997795
0.997731
0.997667
0.997603
0.997539
0.997474
0.997411
0.997347
0.997283
0.997218
0.997153
0.997088
0.997021
0.996958
0.996893
0.996828
0.996765
0.996697
0.996631
0.996568
0.996504
0.996437
0.996373
0.996309
0.99624
0.996175
0.996114
0.996061
0.99601
0.995949
0.995919
0.995913
0.995898
0.995929
0.995954
0.996031
0.996124
0.996328
0.9965
0.997077
0.996596
0.994864
0.993683
0.965408
0.187152
0.999996
0.999992
0.999993
0.999995
0.999993
0.999985
0.999973
0.999958
0.999941
0.999922
0.999901
0.999878
0.999854
0.999828
0.999801
0.999772
0.999742
0.999711
0.999678
0.999644
0.999609
0.999573
0.999535
0.999497
0.999457
0.999415
0.999373
0.999329
0.999284
0.999237
0.999189
0.99914
0.999089
0.999037
0.998984
0.99893
0.998874
0.998817
0.998759
0.9987
0.998641
0.99858
0.998519
0.998458
0.998396
0.998333
0.99827
0.998207
0.998144
0.99808
0.998016
0.997952
0.997888
0.997824
0.99776
0.997696
0.997632
0.997568
0.997503
0.997439
0.997373
0.997309
0.997245
0.997181
0.997117
0.997051
0.996984
0.996918
0.996852
0.996787
0.996721
0.996655
0.996589
0.996521
0.996456
0.996392
0.996329
0.996267
0.996205
0.996138