/*--------------------------------*- C++ -*----------------------------------*\
  =========                 |
  \\      /  F ield         | OpenFOAM: The Open Source CFD Toolbox
   \\    /   O peration     | Website:  https://openfoam.org
    \\  /    A nd           | Version:  9
     \\/     M anipulation  |
\*---------------------------------------------------------------------------*/
FoamFile
{
    format      ascii;
    class       volScalarField;
    location    "3000";
    object      k;
}
// * * * * * * * * * * * * * * * * * * * * * * * * * * * * * * * * * * * * * //

dimensions      [0 2 -2 0 0 0 0];

internalField   nonuniform List<scalar> 
13446
(
3.27706e-05
3.32839e-05
1.38024e-06
3.37714e-05
2.30192e-06
1.80486e-07
1.7328e-08
1.63307e-10
3.42397e-05
3.21991e-06
3.21119e-08
8.47531e-10
7.8764e-10
1.27947e-10
3.46765e-05
3.54793e-07
1.07103e-08
1.29703e-09
8.96108e-10
1.15439e-10
7.74874e-12
3.50924e-05
8.88533e-07
3.33123e-08
3.33317e-09
9.78039e-10
1.80073e-11
1.32957e-12
1.54579e-12
9.43726e-12
9.04265e-11
1.50272e-09
1.42079e-08
9.04891e-08
2.58967e-07
4.81205e-07
6.83512e-07
8.22389e-07
9.02405e-07
9.51492e-07
9.94416e-07
1.04313e-06
1.09961e-06
1.16196e-06
1.22833e-06
1.29813e-06
1.37157e-06
1.44908e-06
1.53096e-06
1.61746e-06
1.70882e-06
1.80521e-06
3.54831e-05
1.55759e-06
1.56714e-08
7.11012e-09
1.35182e-09
3.08235e-11
3.30639e-12
7.13357e-13
4.54706e-12
5.55945e-12
5.77353e-10
5.23142e-09
5.18834e-08
1.80752e-07
3.80411e-07
5.90978e-07
7.58114e-07
8.65744e-07
9.29203e-07
9.73572e-07
1.01769e-06
1.06941e-06
1.1288e-06
1.19338e-06
1.26151e-06
1.33296e-06
1.40819e-06
1.48766e-06
1.57165e-06
1.66036e-06
1.7541e-06
1.85285e-06
1.95716e-06
1.8135e-05
1.91e-05
2.01206e-05
2.11943e-05
2.23202e-05
2.35006e-05
2.47377e-05
2.60351e-05
2.73983e-05
2.88303e-05
3.03373e-05
3.19267e-05
3.36073e-05
3.53935e-05
3.73055e-05
3.93626e-05
4.16186e-05
4.40942e-05
4.69702e-05
5.01858e-05
5.44609e-05
5.95218e-05
6.76687e-05
8.41691e-05
0.000125535
0.000236221
3.58579e-05
2.5601e-06
1.82976e-07
1.62031e-08
7.02433e-11
2.60528e-11
3.00747e-12
4.61352e-13
1.02206e-12
2.63482e-11
2.08474e-10
1.04532e-09
2.55194e-08
1.14649e-07
2.8138e-07
4.89611e-07
6.83522e-07
8.25245e-07
9.09805e-07
9.57371e-07
9.94494e-07
1.03854e-06
1.09381e-06
1.15704e-06
1.22432e-06
1.29417e-06
1.36708e-06
1.44395e-06
1.52531e-06
1.61136e-06
1.70226e-06
1.79826e-06
1.89971e-06
2.00643e-06
1.66787e-05
1.75725e-05
1.85172e-05
1.95111e-05
2.05532e-05
2.16454e-05
2.2791e-05
2.39924e-05
2.52537e-05
2.65788e-05
2.79708e-05
2.94361e-05
3.09817e-05
3.26173e-05
3.43569e-05
3.62179e-05
3.82222e-05
4.04245e-05
4.2844e-05
4.5668e-05
4.88262e-05
5.30807e-05
5.80689e-05
6.62802e-05
8.31322e-05
0.000123862
0.000229278
3.62014e-05
3.13017e-06
2.9082e-07
2.6395e-08
6.11453e-10
8.81326e-11
6.34143e-12
6.90486e-13
9.85798e-13
8.93272e-12
7.71989e-11
1.13271e-09
1.02522e-08
6.54514e-08
1.94909e-07
3.8992e-07
6.04455e-07
7.83422e-07
8.95814e-07
9.49283e-07
9.76458e-07
1.00801e-06
1.05639e-06
1.11835e-06
1.18615e-06
1.25549e-06
1.32636e-06
1.40043e-06
1.47892e-06
1.56221e-06
1.65033e-06
1.74338e-06
1.84157e-06
1.94534e-06
2.05469e-06
2.17015e-06
1.5318e-05
1.61449e-05
1.70174e-05
1.79344e-05
1.88965e-05
1.99063e-05
2.09653e-05
2.20767e-05
2.32428e-05
2.44665e-05
2.57529e-05
2.71041e-05
2.85273e-05
3.00281e-05
3.16171e-05
3.33078e-05
3.51187e-05
3.70691e-05
3.92148e-05
4.15765e-05
4.43471e-05
4.74498e-05
5.16899e-05
5.66182e-05
6.4958e-05
8.21806e-05
0.000122138
0.000221673
3.65167e-05
1.10939e-06
4.69089e-08
3.79347e-10
4.11408e-10
2.26593e-11
3.15583e-12
1.2249e-13
2.60889e-13
1.55009e-12
4.23757e-12
4.07339e-10
2.90434e-09
3.3059e-08
1.26606e-07
2.99385e-07
5.24572e-07
7.39618e-07
8.86283e-07
9.51103e-07
9.67292e-07
9.80711e-07
1.01713e-06
1.07619e-06
1.14566e-06
1.21622e-06
1.286e-06
1.35733e-06
1.43265e-06
1.51295e-06
1.59823e-06
1.68836e-06
1.78346e-06
1.88382e-06
1.98982e-06
2.10186e-06
2.21972e-06
1.02002e-05
1.07574e-05
1.1348e-05
1.19718e-05
1.26292e-05
1.33206e-05
1.40479e-05
1.48132e-05
1.56182e-05
1.64632e-05
1.73506e-05
1.8282e-05
1.92601e-05
2.02862e-05
2.13628e-05
2.24921e-05
2.36788e-05
2.49255e-05
2.62365e-05
2.7616e-05
2.90732e-05
3.06156e-05
3.22559e-05
3.40136e-05
3.59093e-05
3.79972e-05
4.0301e-05
4.30164e-05
4.60595e-05
5.03e-05
5.51658e-05
6.37485e-05
8.13418e-05
0.000120182
0.000213435
3.68308e-05
2.18151e-06
1.28932e-07
1.66368e-08
1.19216e-10
4.2316e-11
1.41072e-12
1.70451e-13
2.82555e-15
1.64226e-12
1.55707e-11
1.53744e-10
3.11882e-10
1.4234e-08
7.6663e-08
2.20606e-07
4.43266e-07
6.87506e-07
8.73327e-07
9.59368e-07
9.69622e-07
9.62083e-07
9.80033e-07
1.03149e-06
1.10175e-06
1.17506e-06
1.24543e-06
1.31475e-06
1.38683e-06
1.46383e-06
1.54608e-06
1.63327e-06
1.72531e-06
1.82237e-06
1.92483e-06
2.033e-06
2.14735e-06
2.26786e-06
2.39497e-06
9.33763e-06
9.85069e-06
1.03938e-05
1.0967e-05
1.15704e-05
1.22054e-05
1.28735e-05
1.35766e-05
1.43158e-05
1.5093e-05
1.59095e-05
1.67678e-05
1.76686e-05
1.8614e-05
1.96066e-05
2.06488e-05
2.17424e-05
2.28917e-05
2.40982e-05
2.53675e-05
2.67043e-05
2.81163e-05
2.96109e-05
3.12022e-05
3.2906e-05
3.47477e-05
3.67767e-05
3.90182e-05
4.16788e-05
4.46619e-05
4.89125e-05
5.37056e-05
6.26856e-05
8.05455e-05
0.000118213
0.000205045
3.75847e-05
1.30489e-06
1.25265e-07
6.98697e-09
1.49681e-09
1.51638e-10
1.26379e-11
2.06511e-13
5.15396e-14
6.1605e-13
3.61288e-12
3.55791e-11
5.95474e-10
4.84512e-09
4.21698e-08
1.53102e-07
3.57625e-07
6.16703e-07
8.41661e-07
9.6237e-07
9.81366e-07
9.58283e-07
9.53294e-07
9.89298e-07
1.05524e-06
1.13051e-06
1.20308e-06
1.27206e-06
1.34159e-06
1.4152e-06
1.49413e-06
1.57822e-06
1.66717e-06
1.76099e-06
1.85995e-06
1.96442e-06
2.07474e-06
2.19127e-06
2.31442e-06
2.44415e-06
2.58096e-06
6.52271e-06
6.88428e-06
7.26397e-06
7.66489e-06
8.08893e-06
8.53692e-06
9.00956e-06
9.50819e-06
1.00334e-05
1.0586e-05
1.11679e-05
1.17807e-05
1.24257e-05
1.31044e-05
1.38184e-05
1.4569e-05
1.53575e-05
1.61864e-05
1.70566e-05
1.79704e-05
1.89299e-05
1.99366e-05
2.09939e-05
2.21049e-05
2.32723e-05
2.45007e-05
2.57937e-05
2.71596e-05
2.86062e-05
3.01471e-05
3.17974e-05
3.35818e-05
3.55522e-05
3.77327e-05
4.0339e-05
4.32565e-05
4.75351e-05
5.22361e-05
6.17932e-05
7.98722e-05
0.000116141
0.000196432
3.97427e-05
9.5112e-07
6.53344e-08
1.54933e-09
5.55487e-10
7.17033e-11
5.423e-12
5.16506e-13
8.26714e-14
2.60498e-13
8.18162e-13
2.46527e-11
2.1344e-10
9.28667e-10
1.99388e-08
9.67237e-08
2.67581e-07
5.19905e-07
7.74856e-07
9.42271e-07
9.93503e-07
9.72655e-07
9.4764e-07
9.59772e-07
1.01105e-06
1.08257e-06
1.15692e-06
1.2276e-06
1.2964e-06
1.36729e-06
1.44276e-06
1.52345e-06
1.60917e-06
1.69973e-06
1.79525e-06
1.89604e-06
2.00245e-06
2.11482e-06
2.23347e-06
2.35878e-06
2.49121e-06
2.63069e-06
2.778e-06
2.93371e-06
3.09787e-06
6.28927e-06
6.63693e-06
7.00342e-06
7.39103e-06
7.80076e-06
8.23303e-06
8.68865e-06
9.16871e-06
9.67438e-06
1.0207e-05
1.07681e-05
1.1359e-05
1.19809e-05
1.26354e-05
1.33236e-05
1.40477e-05
1.48082e-05
1.56077e-05
1.64473e-05
1.73293e-05
1.8255e-05
1.92273e-05
2.02487e-05
2.13212e-05
2.24489e-05
2.36351e-05
2.48851e-05
2.62054e-05
2.76044e-05
2.90928e-05
3.06896e-05
3.24175e-05
3.43281e-05
3.64487e-05
3.89992e-05
4.18546e-05
4.61808e-05
5.0738e-05
6.10913e-05
7.93482e-05
0.000114077
0.00018772
3.97984e-05
1.24423e-06
1.02389e-07
1.80414e-09
2.60072e-10
1.7486e-11
2.89415e-13
7.11603e-14
4.42068e-14
1.52099e-13
9.86864e-13
4.70668e-12
8.49122e-11
8.69936e-10
7.31022e-09
5.28055e-08
1.79253e-07
4.00812e-07
6.66219e-07
8.83501e-07
9.92029e-07
1.00221e-06
9.71729e-07
9.56154e-07
9.79222e-07
1.03494e-06
1.10597e-06
1.17902e-06
1.24973e-06
1.31977e-06
1.3923e-06
1.46935e-06
1.55152e-06
1.6387e-06
1.73081e-06
1.82798e-06
1.93052e-06
2.03876e-06
2.15307e-06
2.27378e-06
2.40122e-06
2.53581e-06
2.67794e-06
2.82798e-06
2.98644e-06
3.15338e-06
3.32933e-06
6.05592e-06
6.39056e-06
6.74457e-06
7.11876e-06
7.51359e-06
7.92977e-06
8.36835e-06
8.83054e-06
9.31751e-06
9.83052e-06
1.0371e-05
1.09399e-05
1.15388e-05
1.21691e-05
1.28322e-05
1.35294e-05
1.42624e-05
1.50326e-05
1.58416e-05
1.66917e-05
1.75844e-05
1.8522e-05
1.95065e-05
2.0541e-05
2.16294e-05
2.2774e-05
2.39799e-05
2.52544e-05
2.66045e-05
2.80427e-05
2.95855e-05
3.1257e-05
3.31085e-05
3.51672e-05
3.76676e-05
4.04533e-05
4.48538e-05
4.92103e-05
6.06241e-05
7.89952e-05
0.000112255
0.000179514
1.93965e-05
1.0921e-06
1.18014e-08
1.1706e-09
1.15731e-10
1.16772e-11
5.67842e-14
2.26752e-14
2.90598e-15
3.32491e-14
4.83309e-13
3.06772e-12
1.99123e-11
3.39486e-10
1.55044e-09
2.28204e-08
1.02977e-07
2.75554e-07
5.26077e-07
7.8249e-07
9.638e-07
1.03637e-06
1.02613e-06
9.89021e-07
9.72681e-07
9.96081e-07
1.05245e-06
1.12469e-06
1.19929e-06
1.27142e-06
1.34265e-06
1.4163e-06
1.49458e-06
1.57809e-06
1.66671e-06
1.76032e-06
1.85905e-06
1.96323e-06
2.07322e-06
2.18936e-06
2.312e-06
2.44147e-06
2.57817e-06
2.72249e-06
2.87483e-06
3.03569e-06
3.20562e-06
3.38462e-06
3.57356e-06
3.77313e-06
3.98391e-06
4.20637e-06
4.44114e-06
4.68886e-06
4.95024e-06
5.22596e-06
5.51689e-06
5.82375e-06
6.1477e-06
6.48943e-06
6.84965e-06
7.22925e-06
7.62943e-06
8.05114e-06
8.49566e-06
8.96403e-06
9.45748e-06
9.97726e-06
1.05245e-05
1.11007e-05
1.17071e-05
1.23448e-05
1.30156e-05
1.37208e-05
1.44619e-05
1.5241e-05
1.60592e-05
1.69186e-05
1.78213e-05
1.87697e-05
1.97665e-05
2.08146e-05
2.19179e-05
2.30803e-05
2.43087e-05
2.56102e-05
2.69973e-05
2.8487e-05
3.01014e-05
3.18956e-05
3.38941e-05
3.63455e-05
3.90615e-05
4.35633e-05
4.7653e-05
6.03885e-05
7.88562e-05
0.000110553
0.000171232
5.50918e-06
6.82565e-07
1.74863e-08
1.96706e-09
2.25659e-10
7.3299e-12
2.26646e-13
3.43632e-14
3.77991e-15
7.23316e-15
2.1413e-13
1.91345e-12
3.58732e-12
2.02464e-10
8.96278e-10
6.35659e-09
4.74848e-08
1.64862e-07
3.77971e-07
6.50482e-07
9.01806e-07
1.05842e-06
1.09864e-06
1.05846e-06
1.00117e-06
9.77296e-07
1.00311e-06
1.06583e-06
1.14329e-06
1.22028e-06
1.29295e-06
1.3644e-06
1.43875e-06
1.5182e-06
1.60309e-06
1.69312e-06
1.78814e-06
1.88834e-06
1.99406e-06
2.10568e-06
2.22353e-06
2.34797e-06
2.47934e-06
2.61804e-06
2.76445e-06
2.91903e-06
3.08216e-06
3.2544e-06
3.43624e-06
3.62816e-06
3.8307e-06
4.04443e-06
4.26997e-06
4.50794e-06
4.75905e-06
5.02398e-06
5.30351e-06
5.59837e-06
5.90931e-06
6.23719e-06
6.58296e-06
6.94752e-06
7.33191e-06
7.73709e-06
8.16412e-06
8.61403e-06
9.0881e-06
9.58738e-06
1.01132e-05
1.06667e-05
1.12491e-05
1.1862e-05
1.25066e-05
1.31844e-05
1.38968e-05
1.46455e-05
1.54321e-05
1.62587e-05
1.71271e-05
1.80392e-05
1.89981e-05
2.00066e-05
2.1068e-05
2.21874e-05
2.33701e-05
2.46242e-05
2.59604e-05
2.73973e-05
2.89566e-05
3.06941e-05
3.26351e-05
3.50374e-05
3.76853e-05
4.23096e-05
4.60727e-05
6.04289e-05
7.87465e-05
0.000109167
0.000163315
3.36387e-05
6.88041e-07
7.14423e-08
4.20212e-09
3.37329e-10
2.78572e-11
2.36142e-12
3.05982e-14
3.07775e-15
1.42136e-15
4.12182e-14
3.2952e-13
8.02872e-12
9.60262e-11
4.54338e-10
6.62111e-10
1.53026e-08
8.31876e-08
2.45917e-07
5.06503e-07
8.05763e-07
1.04854e-06
1.16344e-06
1.14794e-06
1.06319e-06
9.87225e-07
9.67858e-07
1.00789e-06
1.08234e-06
1.16464e-06
1.24161e-06
1.31307e-06
1.38423e-06
1.45943e-06
1.54023e-06
1.62652e-06
1.71785e-06
1.81416e-06
1.9157e-06
2.02285e-06
2.13598e-06
2.25543e-06
2.38155e-06
2.51467e-06
2.65521e-06
2.80356e-06
2.96017e-06
3.12546e-06
3.29992e-06
3.48404e-06
3.67836e-06
3.88345e-06
4.09987e-06
4.32823e-06
4.56918e-06
4.82339e-06
5.09156e-06
5.37444e-06
5.67279e-06
5.98744e-06
6.31929e-06
6.66912e-06
7.03793e-06
7.4267e-06
7.83633e-06
8.2681e-06
8.72291e-06
9.20202e-06
9.70648e-06
1.02376e-05
1.07967e-05
1.13848e-05
1.20036e-05
1.26539e-05
1.33378e-05
1.40566e-05
1.48119e-05
1.56055e-05
1.64399e-05
1.73161e-05
1.82376e-05
1.9207e-05
2.02273e-05
2.13036e-05
2.24408e-05
2.36476e-05
2.49348e-05
2.63197e-05
2.78251e-05
2.95057e-05
3.1391e-05
3.37453e-05
3.63327e-05
4.10853e-05
4.45179e-05
6.06824e-05
7.84106e-05
0.00010787
0.000155369
4.21679e-05
2.76874e-06
4.3318e-08
3.57228e-09
3.60062e-10
9.82995e-14
4.09313e-13
1.4552e-13
8.17938e-15
1.10461e-14
1.92612e-15
3.3221e-13
2.03441e-12
2.51272e-11
2.51291e-10
7.95676e-10
2.51575e-09
3.35789e-08
1.43814e-07
3.67592e-07
6.79747e-07
9.88342e-07
1.18632e-06
1.22435e-06
1.14054e-06
1.0247e-06
9.55063e-07
9.59615e-07
1.02071e-06
1.1046e-06
1.18707e-06
1.2611e-06
1.33069e-06
1.40198e-06
1.47844e-06
1.56071e-06
1.64829e-06
1.74077e-06
1.83823e-06
1.941e-06
2.04947e-06
2.164e-06
2.28491e-06
2.41256e-06
2.5473e-06
2.68952e-06
2.83965e-06
2.99809e-06
3.16534e-06
3.34185e-06
3.52813e-06
3.72471e-06
3.93215e-06
4.15101e-06
4.38194e-06
4.62557e-06
4.88257e-06
5.15367e-06
5.43961e-06
5.74114e-06
6.05911e-06
6.39436e-06
6.74774e-06
7.12034e-06
7.51288e-06
7.92666e-06
8.3625e-06
8.82169e-06
9.3052e-06
9.81415e-06
1.03499e-05
1.09135e-05
1.15065e-05
1.21299e-05
1.27856e-05
1.34748e-05
1.41993e-05
1.49604e-05
1.57607e-05
1.66016e-05
1.7486e-05
1.84164e-05
1.93963e-05
2.04301e-05
2.15235e-05
2.26836e-05
2.39224e-05
2.52564e-05
2.67105e-05
2.83365e-05
3.01702e-05
3.24743e-05
3.50117e-05
3.98687e-05
4.30591e-05
6.10711e-05
7.73896e-05
0.000106641
0.000147621
3.94201e-05
1.28512e-06
1.42323e-07
1.52998e-09
2.99818e-10
4.7695e-11
1.82656e-12
8.76448e-14
1.38956e-14
6.02759e-15
1.64409e-14
7.61845e-13
4.55965e-12
1.56268e-11
8.05395e-11
3.99103e-10
1.48389e-09
1.00125e-08
7.41106e-08
2.44997e-07
5.32203e-07
8.68669e-07
1.13696e-06
1.24773e-06
1.20061e-06
1.07454e-06
9.65502e-07
9.29091e-07
9.6565e-07
1.04318e-06
1.12903e-06
1.20714e-06
1.27726e-06
1.34575e-06
1.41796e-06
1.49596e-06
1.5796e-06
1.66826e-06
1.76173e-06
1.86021e-06
1.9641e-06
2.07377e-06
2.18956e-06
2.3118e-06
2.44083e-06
2.57702e-06
2.72077e-06
2.87248e-06
3.03261e-06
3.20159e-06
3.37993e-06
3.56811e-06
3.76669e-06
3.97621e-06
4.19727e-06
4.43045e-06
4.67648e-06
4.93594e-06
5.20962e-06
5.49822e-06
5.80257e-06
6.12342e-06
6.4617e-06
6.81828e-06
7.194e-06
7.58999e-06
8.00713e-06
8.44662e-06
8.90934e-06
9.39646e-06
9.9092e-06
1.04489e-05
1.10164e-05
1.16134e-05
1.22413e-05
1.29011e-05
1.3595e-05
1.43243e-05
1.50912e-05
1.58973e-05
1.67453e-05
1.7638e-05
1.85782e-05
1.95704e-05
2.06205e-05
2.17358e-05
2.29279e-05
2.42131e-05
2.56166e-05
2.71902e-05
2.89743e-05
3.12254e-05
3.3735e-05
3.86322e-05
4.1798e-05
6.1405e-05
7.52512e-05
0.000105528
0.000139904
3.89129e-05
1.82918e-06
1.31642e-07
1.07127e-08
6.65552e-10
3.85071e-11
3.68973e-12
3.41892e-13
2.86194e-14
4.13682e-16
8.97467e-14
1.46263e-12
1.43014e-11
4.93384e-11
6.51764e-11
6.7728e-11
4.28368e-10
1.7322e-09
3.23215e-08
1.46116e-07
3.78606e-07
6.98765e-07
1.00553e-06
1.18947e-06
1.20879e-06
1.11089e-06
9.88885e-07
9.18562e-07
9.24116e-07
9.85782e-07
1.06933e-06
1.15066e-06
1.22288e-06
1.29013e-06
1.35877e-06
1.43247e-06
1.51198e-06
1.59672e-06
1.68624e-06
1.78054e-06
1.87995e-06
1.98485e-06
2.09558e-06
2.2125e-06
2.3359e-06
2.46616e-06
2.60363e-06
2.74871e-06
2.90184e-06
3.06342e-06
3.23395e-06
3.41389e-06
3.60375e-06
3.80406e-06
4.01539e-06
4.23836e-06
4.47354e-06
4.72158e-06
4.9832e-06
5.25906e-06
5.54998e-06
5.85668e-06
6.18005e-06
6.52088e-06
6.88e-06
7.25858e-06
7.65732e-06
8.07739e-06
8.51974e-06
8.9854e-06
9.47564e-06
9.99149e-06
1.05342e-05
1.11051e-05
1.17054e-05
1.23367e-05
1.30008e-05
1.36988e-05
1.44328e-05
1.52048e-05
1.60172e-05
1.68725e-05
1.77742e-05
1.87262e-05
1.97347e-05
2.08062e-05
2.19529e-05
2.31917e-05
2.45476e-05
2.60708e-05
2.78086e-05
3.00024e-05
3.25078e-05
3.73436e-05
4.08178e-05
6.13607e-05
7.24024e-05
0.000104841
0.000132302
3.89686e-05
2.35442e-06
8.97273e-08
1.08002e-08
1.06059e-09
7.15044e-11
7.27469e-12
7.89404e-13
7.23112e-14
2.90231e-15
3.08884e-14
8.5365e-13
1.3682e-11
6.14554e-11
1.14543e-10
5.45304e-11
4.23967e-11
1.2807e-09
1.11109e-08
7.53566e-08
2.40014e-07
5.08053e-07
8.12837e-07
1.04966e-06
1.14624e-06
1.10859e-06
1.00675e-06
9.21528e-07
8.98633e-07
9.37718e-07
1.01163e-06
1.09263e-06
1.16696e-06
1.23439e-06
1.30055e-06
1.37031e-06
1.4456e-06
1.5263e-06
1.61186e-06
1.70205e-06
1.79707e-06
1.89729e-06
2.00307e-06
2.11474e-06
2.23261e-06
2.35704e-06
2.48834e-06
2.62691e-06
2.77315e-06
2.92748e-06
3.09032e-06
3.26214e-06
3.44345e-06
3.63474e-06
3.83652e-06
4.04941e-06
4.27396e-06
4.51078e-06
4.76057e-06
5.02396e-06
5.30169e-06
5.59448e-06
5.90316e-06
6.22855e-06
6.57143e-06
6.93283e-06
7.31356e-06
7.71459e-06
8.13696e-06
8.58155e-06
9.04964e-06
9.54221e-06
1.00605e-05
1.06059e-05
1.11796e-05
1.1783e-05
1.24177e-05
1.30852e-05
1.37876e-05
1.45261e-05
1.53041e-05
1.61229e-05
1.69875e-05
1.79008e-05
1.88692e-05
1.9899e-05
2.10026e-05
2.21963e-05
2.35063e-05
2.4981e-05
2.66753e-05
2.88095e-05
3.13338e-05
3.59993e-05
4.01361e-05
6.04452e-05
6.92469e-05
0.000104682
0.000125145
3.907e-05
9.17254e-07
8.86327e-08
4.16153e-09
1.58532e-10
4.40763e-11
6.15581e-12
3.00305e-13
2.06273e-14
8.91473e-16
3.35828e-14
1.7741e-13
5.30167e-12
3.91323e-11
1.05624e-10
1.16234e-10
4.85196e-12
2.83793e-10
2.39025e-09
3.22076e-08
1.33827e-07
3.33198e-07
6.01823e-07
8.5887e-07
1.02075e-06
1.05642e-06
1.00137e-06
9.25166e-07
8.85266e-07
9.01289e-07
9.59709e-07
1.03533e-06
1.1099e-06
1.17801e-06
1.24282e-06
1.30934e-06
1.38058e-06
1.45717e-06
1.53871e-06
1.62483e-06
1.71556e-06
1.81121e-06
1.91212e-06
2.01866e-06
2.1311e-06
2.24979e-06
2.37505e-06
2.50723e-06
2.64673e-06
2.79393e-06
2.94925e-06
3.11314e-06
3.28605e-06
3.46848e-06
3.66091e-06
3.86394e-06
4.07807e-06
4.3039e-06
4.54208e-06
4.79326e-06
5.05809e-06
5.33726e-06
5.63166e-06
5.94188e-06
6.26889e-06
6.61346e-06
6.97654e-06
7.35898e-06
7.76176e-06
8.18592e-06
8.63233e-06
9.10244e-06
9.59706e-06
1.01176e-05
1.06653e-05
1.12415e-05
1.18478e-05
1.24856e-05
1.31571e-05
1.38638e-05
1.4608e-05
1.53927e-05
1.62211e-05
1.70969e-05
1.80264e-05
1.90164e-05
2.00788e-05
2.12303e-05
2.24968e-05
2.39263e-05
2.55793e-05
2.76518e-05
3.0205e-05
3.46235e-05
3.96722e-05
5.80304e-05
6.64707e-05
0.000104626
0.000118875
3.91767e-05
3.31168e-06
7.28859e-11
8.92037e-10
1.42662e-11
4.05506e-11
2.45151e-12
2.83496e-13
4.48359e-15
3.17152e-16
2.22045e-16
4.89947e-14
2.14234e-12
1.48348e-11
4.75508e-11
7.99391e-11
3.49707e-11
8.36762e-11
1.35201e-09
1.06053e-08
6.48533e-08
1.98208e-07
4.12648e-07
6.58786e-07
8.59742e-07
9.6132e-07
9.64662e-07
9.17165e-07
8.7584e-07
8.7464e-07
9.15607e-07
9.81333e-07
1.05304e-06
1.1211e-06
1.18523e-06
1.24935e-06
1.31696e-06
1.3895e-06
1.46698e-06
1.54904e-06
1.63556e-06
1.72675e-06
1.82292e-06
1.92443e-06
2.03157e-06
2.14466e-06
2.264e-06
2.38994e-06
2.52285e-06
2.66308e-06
2.81105e-06
2.96718e-06
3.13191e-06
3.3057e-06
3.48901e-06
3.68239e-06
3.88635e-06
4.10149e-06
4.32836e-06
4.56761e-06
4.81988e-06
5.08582e-06
5.36625e-06
5.66177e-06
5.97326e-06
6.30153e-06
6.64745e-06
7.01184e-06
7.3956e-06
7.79992e-06
8.22547e-06
8.67356e-06
9.14536e-06
9.64186e-06
1.01644e-05
1.07146e-05
1.12935e-05
1.19028e-05
1.25446e-05
1.32205e-05
1.39325e-05
1.46842e-05
1.5478e-05
1.63182e-05
1.72109e-05
1.81628e-05
1.91861e-05
2.02972e-05
2.15225e-05
2.29085e-05
2.45225e-05
2.65388e-05
2.91095e-05
3.32741e-05
3.92036e-05
5.48506e-05
6.45444e-05
0.000103201
0.000114101
3.92568e-05
2.96751e-07
2.37721e-08
1.69985e-09
2.71814e-10
5.09838e-11
3.0764e-12
2.04782e-13
1.74779e-14
2.38038e-16
2.22045e-16
2.85382e-14
4.05856e-13
1.65737e-12
9.73501e-12
1.98539e-11
2.33126e-11
9.00627e-12
3.41021e-10
2.26919e-09
2.62691e-08
1.06266e-07
2.63144e-07
4.77334e-07
6.90009e-07
8.39071e-07
8.98997e-07
8.91341e-07
8.62839e-07
8.53625e-07
8.7911e-07
9.32386e-07
9.98031e-07
1.06441e-06
1.12785e-06
1.19025e-06
1.2548e-06
1.32354e-06
1.397e-06
1.475e-06
1.55739e-06
1.64424e-06
1.73581e-06
1.83243e-06
1.93441e-06
2.04204e-06
2.15564e-06
2.27551e-06
2.40201e-06
2.53548e-06
2.67632e-06
2.82491e-06
2.98169e-06
3.14709e-06
3.32156e-06
3.50563e-06
3.69975e-06
3.90451e-06
4.12045e-06
4.34816e-06
4.58828e-06
4.84144e-06
5.10834e-06
5.38971e-06
5.68626e-06
5.99883e-06
6.32816e-06
6.67523e-06
7.0408e-06
7.42586e-06
7.83151e-06
8.25856e-06
8.70828e-06
9.18186e-06
9.68043e-06
1.02056e-05
1.07583e-05
1.13406e-05
1.19541e-05
1.26006e-05
1.32824e-05
1.40023e-05
1.47635e-05
1.55697e-05
1.64275e-05
1.73438e-05
1.83304e-05
1.94045e-05
2.05918e-05
2.19385e-05
2.35156e-05
2.54822e-05
2.80518e-05
3.20161e-05
3.85196e-05
5.20001e-05
6.32831e-05
9.8639e-05
0.000111328
3.93322e-05
2.00385e-06
1.59535e-07
3.36521e-10
6.01916e-10
6.73652e-11
3.82167e-13
8.85383e-15
3.31679e-15
2.4327e-16
2.22045e-16
4.56455e-14
2.52425e-13
4.85554e-13
1.10038e-12
6.59986e-13
4.02876e-12
1.02762e-11
1.29783e-10
1.10067e-09
7.78186e-09
4.87721e-08
1.5199e-07
3.22078e-07
5.24115e-07
7.00816e-07
8.09576e-07
8.4676e-07
8.42305e-07
8.34852e-07
8.49173e-07
8.89404e-07
9.46399e-07
1.00905e-06
1.0712e-06
1.13225e-06
1.19437e-06
1.25971e-06
1.32931e-06
1.40333e-06
1.48166e-06
1.56431e-06
1.65145e-06
1.74338e-06
1.84039e-06
1.94277e-06
2.05084e-06
2.16487e-06
2.2852e-06
2.41218e-06
2.54616e-06
2.68752e-06
2.83668e-06
2.99403e-06
3.16004e-06
3.33516e-06
3.51986e-06
3.71471e-06
3.92019e-06
4.1369e-06
4.36542e-06
4.60641e-06
4.86046e-06
5.12834e-06
5.41065e-06
5.70829e-06
6.02193e-06
6.35248e-06
6.70085e-06
7.06777e-06
7.45445e-06
7.8617e-06
8.29073e-06
8.74258e-06
9.21859e-06
9.72025e-06
1.02484e-05
1.08052e-05
1.13921e-05
1.2011e-05
1.26644e-05
1.33548e-05
1.40854e-05
1.48606e-05
1.56864e-05
1.65699e-05
1.75233e-05
1.85635e-05
1.97172e-05
2.10301e-05
2.25741e-05
2.45012e-05
2.70495e-05
3.0891e-05
3.75883e-05
4.97301e-05
6.16666e-05
9.15926e-05
0.000107444
3.93801e-05
1.79084e-06
1.42542e-07
9.47819e-10
4.63306e-10
4.99082e-11
3.7578e-12
1.94526e-13
1.44708e-14
3.48265e-16
2.22045e-16
1.17424e-14
2.20492e-14
8.33363e-14
2.83575e-13
6.66295e-13
1.15214e-12
6.01819e-13
2.79948e-11
3.12703e-10
1.21564e-09
1.69654e-08
7.45254e-08
1.94325e-07
3.67201e-07
5.51675e-07
6.98827e-07
7.82852e-07
8.12139e-07
8.16536e-07
8.25406e-07
8.53378e-07
8.99771e-07
9.56538e-07
1.01636e-06
1.07617e-06
1.13645e-06
1.19893e-06
1.265e-06
1.3352e-06
1.40963e-06
1.48826e-06
1.57122e-06
1.65872e-06
1.75104e-06
1.84848e-06
1.95131e-06
2.05985e-06
2.17437e-06
2.29524e-06
2.42276e-06
2.55733e-06
2.69932e-06
2.84912e-06
3.00718e-06
3.17392e-06
3.34981e-06
3.53536e-06
3.73108e-06
3.93751e-06
4.15523e-06
4.38482e-06
4.62693e-06
4.88226e-06
5.15139e-06
5.43519e-06
5.73431e-06
6.0496e-06
6.38197e-06
6.73229e-06
7.10145e-06
7.49048e-06
7.90052e-06
8.33257e-06
8.7878e-06
9.26782e-06
9.77358e-06
1.03071e-05
1.08697e-05
1.14639e-05
1.20912e-05
1.2755e-05
1.34584e-05
1.42057e-05
1.50034e-05
1.58585e-05
1.67839e-05
1.77958e-05
1.89219e-05
2.02072e-05
2.17243e-05
2.36208e-05
2.61385e-05
2.99065e-05
3.64707e-05
4.81526e-05
5.97174e-05
8.53284e-05
0.000103031
3.94387e-05
1.16486e-06
1.06782e-07
5.38444e-09
1.16228e-09
1.13232e-10
1.11289e-12
2.04009e-14
7.35103e-15
1.17344e-15
2.22045e-16
3.75204e-16
3.58058e-15
6.51166e-14
2.48454e-13
5.9454e-13
4.51401e-13
1.36336e-12
1.4773e-11
1.14363e-10
6.46706e-10
3.76589e-09
2.90078e-08
1.01313e-07
2.32428e-07
4.04041e-07
5.73623e-07
7.00736e-07
7.70526e-07
7.96934e-07
8.07662e-07
8.25766e-07
8.60487e-07
9.09359e-07
9.65587e-07
1.02401e-06
1.08298e-06
1.14329e-06
1.20634e-06
1.27309e-06
1.3439e-06
1.41886e-06
1.498e-06
1.5815e-06
1.66959e-06
1.76255e-06
1.86067e-06
1.96423e-06
2.07352e-06
2.18887e-06
2.31058e-06
2.43903e-06
2.57457e-06
2.71759e-06
2.8685e-06
3.02772e-06
3.19571e-06
3.37294e-06
3.55991e-06
3.75714e-06
3.96521e-06
4.18464e-06
4.41611e-06
4.6602e-06
4.91758e-06
5.18903e-06
5.4752e-06
5.77697e-06
6.09505e-06
6.43056e-06
6.78415e-06
7.15707e-06
7.55018e-06
7.96478e-06
8.40179e-06
8.86292e-06
9.34917e-06
9.8622e-06
1.0404e-05
1.09763e-05
1.15816e-05
1.22227e-05
1.29032e-05
1.36279e-05
1.44024e-05
1.52349e-05
1.61378e-05
1.71282e-05
1.82333e-05
1.94982e-05
2.09951e-05
2.28681e-05
2.53537e-05
2.90703e-05
3.53718e-05
4.67299e-05
5.76054e-05
8.05207e-05
9.88805e-05
3.96992e-05
1.54729e-06
8.06015e-08
6.27694e-10
5.70917e-10
6.69501e-11
4.55153e-13
4.45488e-14
1.81864e-14
2.1922e-15
2.22045e-16
2.22045e-16
2.22045e-16
2.22045e-16
2.22045e-16
6.59345e-14
8.07086e-14
1.32118e-14
3.98919e-12
1.28631e-11
1.69455e-10
4.44239e-10
1.00496e-08
5.00549e-08
1.41992e-07
2.87928e-07
4.6045e-07
6.16262e-07
7.22866e-07
7.75803e-07
7.95043e-07
8.0765e-07
8.31892e-07
8.7225e-07
9.24077e-07
9.8093e-07
1.03906e-06
1.09796e-06
1.15879e-06
1.22279e-06
1.29065e-06
1.36258e-06
1.43863e-06
1.5189e-06
1.60358e-06
1.69294e-06
1.78725e-06
1.88679e-06
1.99186e-06
2.10275e-06
2.21977e-06
2.34328e-06
2.4736e-06
2.61115e-06
2.75627e-06
2.90941e-06
3.07098e-06
3.24146e-06
3.42132e-06
3.61105e-06
3.81123e-06
4.02234e-06
4.24506e-06
4.47989e-06
4.72753e-06
4.98868e-06
5.26398e-06
5.55432e-06
5.86036e-06
6.18327e-06
6.52374e-06
6.88307e-06
7.26208e-06
7.66199e-06
8.08406e-06
8.52949e-06
8.99986e-06
9.4964e-06
1.00215e-05
1.05765e-05
1.11647e-05
1.17884e-05
1.24515e-05
1.31585e-05
1.39154e-05
1.47301e-05
1.56159e-05
1.65893e-05
1.76788e-05
1.89281e-05
2.04087e-05
2.22604e-05
2.47074e-05
2.83699e-05
3.43049e-05
4.56698e-05
5.59589e-05
7.69341e-05
9.5194e-05
4.11916e-05
3.80521e-06
4.94101e-08
4.89505e-09
2.73929e-10
4.49933e-12
7.70824e-13
1.65089e-14
4.45792e-15
1.67741e-15
3.37095e-16
2.22045e-16
2.22045e-16
1.98547e-14
1.92908e-14
1.92894e-13
7.27294e-14
2.64234e-13
1.49102e-12
2.44376e-11
2.84413e-11
6.75396e-11
6.77501e-09
3.74784e-08
1.13802e-07
2.44625e-07
4.11677e-07
5.75031e-07
6.9692e-07
7.63699e-07
7.89194e-07
8.00427e-07
8.19641e-07
8.55324e-07
9.04545e-07
9.60476e-07
1.01825e-06
1.07658e-06
1.1364e-06
1.19909e-06
1.26551e-06
1.33597e-06
1.4105e-06
1.48918e-06
1.57217e-06
1.65974e-06
1.75214e-06
1.84966e-06
1.95258e-06
2.06118e-06
2.17578e-06
2.2967e-06
2.42427e-06
2.55887e-06
2.70085e-06
2.85064e-06
3.00862e-06
3.17526e-06
3.35098e-06
3.53627e-06
3.73168e-06
3.93765e-06
4.15481e-06
4.38362e-06
4.62475e-06
4.8788e-06
5.1464e-06
5.42839e-06
5.72543e-06
6.03871e-06
6.36901e-06
6.71781e-06
7.08615e-06
7.47512e-06
7.88612e-06
8.32004e-06
8.77896e-06
9.264e-06
9.77748e-06
1.03208e-05
1.08969e-05
1.15077e-05
1.21567e-05
1.28478e-05
1.35877e-05
1.43843e-05
1.5252e-05
1.62082e-05
1.7282e-05
1.85139e-05
1.9974e-05
2.1797e-05
2.4191e-05
2.77828e-05
3.32984e-05
4.45456e-05
5.46356e-05
7.4082e-05
9.16953e-05
3.41262e-05
2.59862e-06
2.12313e-08
8.80272e-11
9.15108e-11
8.73022e-13
2.81311e-13
1.52116e-13
2.52352e-14
9.32267e-15
7.23736e-15
1.9231e-15
2.22045e-16
1.08125e-14
5.09167e-14
1.23474e-13
6.23884e-14
8.77648e-14
3.04655e-12
1.41983e-11
1.76838e-10
8.20109e-10
1.13744e-08
5.13516e-08
1.40944e-07
2.83525e-07
4.54513e-07
6.11802e-07
7.21423e-07
7.76546e-07
7.96052e-07
8.07636e-07
8.30776e-07
8.70601e-07
9.2236e-07
9.79244e-07
1.0373e-06
1.09603e-06
1.15667e-06
1.22049e-06
1.28818e-06
1.35991e-06
1.43572e-06
1.51572e-06
1.60011e-06
1.68913e-06
1.78306e-06
1.88219e-06
1.98677e-06
2.09711e-06
2.21352e-06
2.33632e-06
2.46584e-06
2.60245e-06
2.74652e-06
2.89846e-06
3.05863e-06
3.22752e-06
3.40554e-06
3.59316e-06
3.79089e-06
3.99919e-06
4.21866e-06
4.44974e-06
4.69308e-06
4.94918e-06
5.21872e-06
5.50241e-06
5.80094e-06
6.1153e-06
6.44624e-06
6.79512e-06
7.16277e-06
7.55029e-06
7.95862e-06
8.38866e-06
8.84219e-06
9.31984e-06
9.8238e-06
1.03549e-05
1.09155e-05
1.15068e-05
1.21316e-05
1.27941e-05
1.35028e-05
1.42692e-05
1.5108e-05
1.60385e-05
1.70869e-05
1.82909e-05
1.97141e-05
2.14875e-05
2.38003e-05
2.72922e-05
3.22768e-05
4.37213e-05
5.36418e-05
7.17919e-05
8.89086e-05
2.54901e-05
1.12712e-06
1.10125e-10
1.43072e-09
1.29522e-10
6.12937e-12
4.06653e-13
2.93911e-14
1.11045e-13
3.05538e-13
2.5879e-13
8.64324e-14
1.04139e-14
1.80475e-14
3.86507e-14
7.12186e-14
1.8381e-13
7.82557e-13
2.01555e-12
1.13776e-10
6.98835e-10
4.56396e-09
2.91242e-08
9.49345e-08
2.14386e-07
3.75617e-07
5.43027e-07
6.77321e-07
7.58723e-07
7.94902e-07
8.10346e-07
8.28721e-07
8.61655e-07
9.08676e-07
9.6379e-07
1.02179e-06
1.08069e-06
1.14103e-06
1.20407e-06
1.27073e-06
1.34139e-06
1.41614e-06
1.49506e-06
1.57833e-06
1.66618e-06
1.75886e-06
1.85667e-06
1.95988e-06
2.06876e-06
2.18366e-06
2.30485e-06
2.43271e-06
2.56757e-06
2.7098e-06
2.85982e-06
3.01801e-06
3.1848e-06
3.36064e-06
3.546e-06
3.74136e-06
3.94722e-06
4.16414e-06
4.39267e-06
4.63329e-06
4.88674e-06
5.15344e-06
5.43419e-06
5.72959e-06
6.0404e-06
6.36737e-06
6.71125e-06
7.07298e-06
7.45326e-06
7.85291e-06
8.27281e-06
8.71363e-06
9.1767e-06
9.66226e-06
1.0172e-05
1.07065e-05
1.12673e-05
1.18556e-05
1.24734e-05
1.31244e-05
1.38159e-05
1.45591e-05
1.53655e-05
1.62535e-05
1.72444e-05
1.83777e-05
1.97208e-05
2.14032e-05
2.3597e-05
2.69437e-05
3.14074e-05
4.30783e-05
5.32123e-05
7.09049e-05
8.963e-05
3.87064e-05
4.63507e-07
6.33391e-08
7.40781e-09
4.17334e-10
2.71072e-11
2.36849e-12
2.02323e-14
1.71821e-14
5.09924e-14
5.37364e-14
2.03739e-14
9.46516e-15
1.13841e-14
1.22785e-14
6.42153e-14
7.60406e-13
5.23473e-12
4.18234e-11
3.0689e-10
1.65819e-09
1.65877e-08
6.59112e-08
1.66494e-07
3.15087e-07
4.83296e-07
6.3205e-07
7.34431e-07
7.8867e-07
8.13427e-07
8.32458e-07
8.61415e-07
9.04116e-07
9.56767e-07
1.01415e-06
1.07329e-06
1.13384e-06
1.19674e-06
1.263e-06
1.33316e-06
1.40741e-06
1.48586e-06
1.56865e-06
1.65599e-06
1.74815e-06
1.8454e-06
1.94803e-06
2.05633e-06
2.17059e-06
2.29114e-06
2.41833e-06
2.55249e-06
2.69402e-06
2.84329e-06
3.00072e-06
3.16674e-06
3.34178e-06
3.52632e-06
3.72088e-06
3.92594e-06
4.14202e-06
4.36973e-06
4.6096e-06
4.86221e-06
5.12829e-06
5.40834e-06
5.7031e-06
6.01321e-06
6.3394e-06
6.68246e-06
7.04297e-06
7.42183e-06
7.81988e-06
8.23766e-06
8.6764e-06
9.1364e-06
9.61911e-06
1.0125e-05
1.06553e-05
1.12108e-05
1.17933e-05
1.24036e-05
1.30443e-05
1.37178e-05
1.44295e-05
1.51857e-05
1.59952e-05
1.68717e-05
1.78349e-05
1.89216e-05
2.02008e-05
2.17983e-05
2.38859e-05
2.70578e-05
3.13707e-05
4.20886e-05
5.26974e-05
7.07253e-05
9.11996e-05
3.98559e-05
3.23682e-06
1.0837e-08
1.43431e-09
8.50071e-11
2.2748e-11
6.76379e-13
1.54096e-13
2.23439e-14
9.77714e-15
5.80826e-16
2.22045e-16
4.01525e-15
1.19591e-14
2.61715e-14
1.69212e-13
1.68983e-12
7.88998e-12
1.58911e-10
2.40591e-10
8.17407e-09
4.3538e-08
1.26878e-07
2.62049e-07
4.27238e-07
5.85108e-07
7.04474e-07
7.76123e-07
8.12619e-07
8.35823e-07
8.63415e-07
9.02745e-07
9.52675e-07
1.00886e-06
1.06789e-06
1.12866e-06
1.19164e-06
1.25772e-06
1.32756e-06
1.40148e-06
1.47959e-06