/*--------------------------------*- C++ -*----------------------------------*\
  =========                 |
  \\      /  F ield         | OpenFOAM: The Open Source CFD Toolbox
   \\    /   O peration     | Website:  https://openfoam.org
    \\  /    A nd           | Version:  9
     \\/     M anipulation  |
\*---------------------------------------------------------------------------*/
FoamFile
{
    format      ascii;
    class       volScalarField;
    location    "3000";
    object      nut;
}
// * * * * * * * * * * * * * * * * * * * * * * * * * * * * * * * * * * * * * //

dimensions      [0 2 -1 0 0 0 0];

internalField   nonuniform List<scalar> 
13446
(
9.10066e-07
9.1026e-07
1.11945e-06
9.10468e-07
1.29086e-06
5.11723e-06
2.16806e-06
1.28373e-07
9.10742e-07
1.54962e-06
3.33233e-07
5.60636e-08
3.14034e-07
2.50901e-08
9.10855e-07
1.49718e-07
1.26148e-07
2.18773e-07
2.37093e-07
1.66616e-08
3.2085e-11
9.11016e-07
3.48914e-07
2.27879e-07
1.97264e-07
4.40871e-08
8.84999e-11
2.14678e-12
1.43139e-12
7.24508e-12
7.78132e-11
1.87123e-09
2.68287e-08
1.58079e-07
3.01625e-07
4.16543e-07
5.11821e-07
5.79857e-07
6.14203e-07
6.22024e-07
6.18313e-07
6.13919e-07
6.12209e-07
6.12467e-07
6.13346e-07
6.14179e-07
6.1488e-07
6.15537e-07
6.16205e-07
6.16893e-07
6.17596e-07
6.18314e-07
9.11121e-07
5.31395e-07
6.99893e-08
9.78003e-08
4.49789e-09
3.80963e-11
2.78758e-12
4.73544e-13
2.63051e-12
3.48855e-12
5.27283e-10
9.19192e-09
1.24221e-07
2.68622e-07
3.66192e-07
4.59443e-07
5.4307e-07
5.99078e-07
6.21364e-07
6.21605e-07
6.15616e-07
6.11764e-07
6.11092e-07
6.11926e-07
6.12921e-07
6.13689e-07
6.14327e-07
6.14964e-07
6.15636e-07
6.16331e-07
6.17039e-07
6.17761e-07
6.18504e-07
6.85474e-07
6.87429e-07
6.89221e-07
6.90892e-07
6.92433e-07
6.93803e-07
6.9503e-07
6.96228e-07
6.9748e-07
6.98785e-07
7.00119e-07
7.01488e-07
7.02944e-07
7.04542e-07
7.06358e-07
7.08389e-07
7.10909e-07
7.13776e-07
7.18278e-07
7.23373e-07
7.34847e-07
7.48995e-07
7.81951e-07
8.59687e-07
1.09083e-06
3.15425e-07
9.11303e-07
7.42836e-07
5.4294e-07
1.01806e-07
5.56008e-11
1.31041e-11
1.65405e-12
2.93863e-13
5.97925e-13
1.52538e-11
1.64541e-10
1.66563e-09
7.64966e-08
2.14911e-07
3.02501e-07
3.98644e-07
5.0026e-07
5.81406e-07
6.22213e-07
6.27851e-07
6.18975e-07
6.11268e-07
6.08984e-07
6.09995e-07
6.11571e-07
6.12609e-07
6.13218e-07
6.13752e-07
6.14367e-07
6.15051e-07
6.15758e-07
6.16472e-07
6.172e-07
6.17946e-07
6.8032e-07
6.82423e-07
6.84345e-07
6.86119e-07
6.8777e-07
6.89266e-07
6.90593e-07
6.9183e-07
6.93091e-07
6.94412e-07
6.95768e-07
6.97144e-07
6.98569e-07
7.00101e-07
7.01786e-07
7.0369e-07
7.05827e-07
7.08498e-07
7.11575e-07
7.16406e-07
7.21763e-07
7.33727e-07
7.47909e-07
7.81406e-07
8.63254e-07
1.0839e-06
3.02586e-07
9.1128e-07
5.00199e-06
3.9763e-06
2.31488e-08
1.98996e-10
2.52095e-11
2.76876e-12
5.90514e-13
8.46747e-13
6.18705e-12
6.38951e-11
1.72321e-09
2.91805e-08
1.30945e-07
2.25034e-07
3.33866e-07
4.57047e-07
5.65362e-07
6.27206e-07
6.39148e-07
6.25402e-07
6.10983e-07
6.05572e-07
6.0686e-07
6.09766e-07
6.11617e-07
6.12322e-07
6.12658e-07
6.13113e-07
6.13748e-07
6.1446e-07
6.1518e-07
6.15898e-07
6.16628e-07
6.1738e-07
6.18157e-07
6.75123e-07
6.77345e-07
6.79391e-07
6.81263e-07
6.83004e-07
6.84616e-07
6.86053e-07
6.87353e-07
6.88629e-07
6.89953e-07
6.91326e-07
6.92717e-07
6.94132e-07
6.9561e-07
6.97211e-07
6.98974e-07
7.00964e-07
7.03201e-07
7.06018e-07
7.09308e-07
7.14497e-07
7.20203e-07
7.3291e-07
7.47385e-07
7.82187e-07
8.68486e-07
1.07564e-06
2.88779e-07
9.10894e-07
5.39205e-07
1.93317e-07
1.28742e-10
7.54978e-11
4.59428e-12
1.24959e-12
1.81647e-13
5.26752e-13
1.72724e-12
4.70872e-12
6.72124e-10
6.44956e-09
5.63901e-08
1.46009e-07
2.69302e-07
4.16892e-07
5.53786e-07
6.37909e-07
6.57067e-07
6.36916e-07
6.12313e-07
6.01011e-07
6.01875e-07
6.06833e-07
6.10411e-07
6.11656e-07
6.118e-07
6.11954e-07
6.12443e-07
6.13138e-07
6.13876e-07
6.14599e-07
6.15316e-07
6.16049e-07
6.16807e-07
6.17588e-07
6.5585e-07
6.58036e-07
6.60309e-07
6.62661e-07
6.65079e-07
6.67524e-07
6.69933e-07
6.72239e-07
6.74389e-07
6.76362e-07
6.78185e-07
6.79887e-07
6.81439e-07
6.82817e-07
6.84122e-07
6.85447e-07
6.86822e-07
6.88227e-07
6.89645e-07
6.91096e-07
6.92631e-07
6.94297e-07
6.96125e-07
6.98188e-07
7.00521e-07
7.03485e-07
7.06991e-07
7.12563e-07
7.1867e-07
7.32403e-07
7.47304e-07
7.84646e-07
8.75567e-07
1.0652e-06
2.73712e-07
9.10669e-07
9.03147e-05
2.39339e-07
3.77426e-09
1.67584e-11
7.5057e-12
5.29654e-13
2.04577e-13
5.8879e-15
3.09117e-12
3.19523e-11
3.28041e-10
5.44087e-10
1.90095e-08
8.32303e-08
2.08142e-07
3.79052e-07
5.45386e-07
6.52062e-07
6.8023e-07
6.54897e-07
6.1812e-07
5.97313e-07
5.95388e-07
6.02128e-07
6.083e-07
6.10922e-07
6.11201e-07
6.11005e-07
6.11207e-07
6.11807e-07
6.12553e-07
6.13295e-07
6.14011e-07
6.14727e-07
6.15464e-07
6.16227e-07
6.17016e-07
6.17831e-07
6.51394e-07
6.5346e-07
6.55606e-07
6.57831e-07
6.60129e-07
6.62482e-07
6.6485e-07
6.67171e-07
6.6938e-07
6.7144e-07
6.73341e-07
6.75116e-07
6.76761e-07
6.7823e-07
6.79581e-07
6.80918e-07
6.82288e-07
6.83695e-07
6.85116e-07
6.86555e-07
6.88045e-07
6.89632e-07
6.91355e-07
6.93244e-07
6.95373e-07
6.97805e-07
7.00915e-07
7.04635e-07
7.1062e-07
7.17164e-07
7.322e-07
7.47493e-07
7.89146e-07
8.83901e-07
1.05465e-06
2.5944e-07
9.26324e-07
8.35719e-07
1.04268e-07
2.12083e-09
2.69378e-10
3.27285e-11
4.67912e-12
1.19073e-13
4.23817e-14
1.06089e-12
1.7818e-11
1.05039e-10
8.66005e-10
5.25049e-09
4.24336e-08
1.52082e-07
3.38927e-07
5.33898e-07
6.62157e-07
7.02392e-07
6.78117e-07
6.32026e-07
5.99152e-07
5.90081e-07
5.95969e-07
6.04456e-07
6.09335e-07
6.10556e-07
6.10303e-07
6.10161e-07
6.10535e-07
6.11222e-07
6.11977e-07
6.12707e-07
6.13417e-07
6.14135e-07
6.14877e-07
6.15646e-07
6.16441e-07
6.17261e-07
6.18109e-07
6.38351e-07
6.39976e-07
6.41664e-07
6.43419e-07
6.45239e-07
6.47125e-07
6.4908e-07
6.51106e-07
6.53203e-07
6.55372e-07
6.57609e-07
6.59895e-07
6.62181e-07
6.6441e-07
6.66525e-07
6.68497e-07
6.7033e-07
6.72049e-07
6.73608e-07
6.75028e-07
6.76384e-07
6.77746e-07
6.79142e-07
6.80564e-07
6.81998e-07
6.8346e-07
6.84987e-07
6.8662e-07
6.88391e-07
6.90332e-07
6.92525e-07
6.95052e-07
6.98318e-07
7.02261e-07
7.08692e-07
7.15672e-07
7.3232e-07
7.47745e-07
7.95984e-07
8.93785e-07
1.04468e-06
2.44497e-07
1.01763e-06
5.37287e-07
7.3004e-09
3.44863e-10
6.82869e-10
3.95229e-11
2.5513e-12
2.39534e-13
5.15424e-14
4.0178e-13
6.18166e-12
7.00142e-11
2.59751e-10
8.63896e-10
1.88606e-08
1.01904e-07
2.89962e-07
5.09061e-07
6.56688e-07
7.13432e-07
7.01877e-07
6.56715e-07
6.13386e-07
5.91911e-07
5.90952e-07
5.98735e-07
6.05778e-07
6.09029e-07
6.09593e-07
6.09386e-07
6.09455e-07
6.09948e-07
6.10654e-07
6.11394e-07
6.12112e-07
6.12822e-07
6.13544e-07
6.14292e-07
6.15066e-07
6.15866e-07
6.16693e-07
6.17545e-07
6.18429e-07
6.19345e-07
6.2029e-07
6.36374e-07
6.37953e-07
6.39596e-07
6.41303e-07
6.43074e-07
6.4491e-07
6.46813e-07
6.48785e-07
6.50827e-07
6.5294e-07
6.55116e-07
6.5733e-07
6.59532e-07
6.61664e-07
6.63683e-07
6.65568e-07
6.67332e-07
6.68975e-07
6.70459e-07
6.7185e-07
6.73216e-07
6.74602e-07
6.76014e-07
6.77437e-07
6.78879e-07
6.80364e-07
6.81929e-07
6.83604e-07
6.85416e-07
6.87399e-07
6.89656e-07
6.92286e-07
6.95715e-07
6.99896e-07
7.06801e-07
7.14207e-07
7.32833e-07
7.47752e-07
8.05386e-07
9.05062e-07
1.03662e-06
2.27686e-07
1.11535e-06
3.13144e-08
6.47059e-10
8.6081e-11
1.70163e-10
1.92856e-09
4.13819e-13
6.37226e-14
5.11622e-14
4.40237e-13
5.71104e-12
8.94714e-12
8.473e-11
7.19673e-10
6.60717e-09
5.89948e-08
2.26387e-07
4.58239e-07
6.23485e-07
7.03625e-07
7.20008e-07
6.92444e-07
6.46763e-07
6.09441e-07
5.92831e-07
5.92913e-07
5.99528e-07
6.05346e-07
6.08116e-07
6.08727e-07
6.08691e-07
6.08862e-07
6.09377e-07
6.10073e-07
6.10804e-07
6.11521e-07
6.12233e-07
6.1296e-07
6.13712e-07
6.14491e-07
6.15296e-07
6.16128e-07
6.16988e-07
6.17877e-07
6.18798e-07
6.19751e-07
6.20739e-07
6.34422e-07
6.35955e-07
6.37552e-07
6.39213e-07
6.40935e-07
6.42721e-07
6.44573e-07
6.46493e-07
6.48481e-07
6.50538e-07
6.52651e-07
6.54788e-07
6.56899e-07
6.58934e-07
6.60855e-07
6.62652e-07
6.64342e-07
6.65887e-07
6.67327e-07
6.68711e-07
6.7009e-07
6.71486e-07
6.72895e-07
6.74318e-07
6.75771e-07
6.77281e-07
6.78878e-07
6.80586e-07
6.82432e-07
6.84462e-07
6.86787e-07
6.89528e-07
6.93134e-07
6.97559e-07
7.04986e-07
7.12768e-07
7.33768e-07
7.47263e-07
8.17725e-07
9.17642e-07
1.03068e-06
2.12587e-07
2.39319e-07
3.93136e-09
1.09413e-11
5.72667e-12
8.52492e-12
1.95512e-11
3.12092e-13
1.35146e-13
4.3004e-14
4.68503e-13
1.91099e-12
4.24004e-12
1.68482e-11
2.56358e-10
1.35127e-09
2.66003e-08
1.49663e-07
3.71674e-07
5.54561e-07
6.68445e-07
7.28499e-07
7.37032e-07
7.02575e-07
6.5075e-07
6.09717e-07
5.91569e-07
5.91445e-07
5.98447e-07
6.04662e-07
6.07594e-07
6.08194e-07
6.08111e-07
6.08262e-07
6.08782e-07
6.09488e-07
6.10223e-07
6.1094e-07
6.11654e-07
6.12385e-07
6.13142e-07
6.13925e-07
6.14735e-07
6.15571e-07
6.16437e-07
6.17332e-07
6.1826e-07
6.19221e-07
6.20215e-07
6.21248e-07
6.2232e-07
6.23432e-07
6.24585e-07
6.25782e-07
6.27025e-07
6.28316e-07
6.29655e-07
6.31046e-07
6.32489e-07
6.33989e-07
6.35545e-07
6.37159e-07
6.38833e-07
6.4057e-07
6.42371e-07
6.44237e-07
6.46171e-07
6.4817e-07
6.50216e-07
6.52272e-07
6.54289e-07
6.56221e-07
6.5804e-07
6.59751e-07
6.61355e-07
6.62836e-07
6.64246e-07
6.65621e-07
6.66999e-07
6.68391e-07
6.69796e-07
6.7122e-07
6.72687e-07
6.74222e-07
6.75845e-07
6.7758e-07
6.79457e-07
6.81534e-07
6.83938e-07
6.868e-07
6.90596e-07
6.95282e-07
7.03259e-07
7.11366e-07
7.35174e-07
7.46134e-07
8.32953e-07
9.31135e-07
1.02495e-06
1.97006e-07
1.5226e-08
1.46071e-10
3.04936e-13
1.56107e-12
2.03428e-12
4.4417e-12
1.24641e-10
3.79259e-13
1.0129e-14
1.85583e-14
4.89167e-13
2.2189e-12
2.75305e-12
1.44726e-10
7.65574e-10
7.60681e-09
7.63016e-08
2.57456e-07
4.53538e-07
6.10834e-07
7.27186e-07
7.86686e-07
7.77912e-07
7.18523e-07
6.48712e-07
6.01457e-07
5.84935e-07
5.88597e-07
5.98115e-07
6.04973e-07
6.07559e-07
6.07723e-07
6.07454e-07
6.07611e-07
6.08184e-07
6.08919e-07
6.09659e-07
6.10374e-07
6.11089e-07
6.11822e-07
6.12583e-07
6.13371e-07
6.14185e-07
6.15027e-07
6.15898e-07
6.16799e-07
6.17732e-07
6.18699e-07
6.19702e-07
6.20742e-07
6.21821e-07
6.22941e-07
6.24103e-07
6.25309e-07
6.26561e-07
6.27861e-07
6.29211e-07
6.30612e-07
6.32066e-07
6.33576e-07
6.35144e-07
6.3677e-07
6.38457e-07
6.40206e-07
6.42021e-07
6.439e-07
6.45837e-07
6.4781e-07
6.49777e-07
6.51692e-07
6.53518e-07
6.55237e-07
6.56862e-07
6.58385e-07
6.59821e-07
6.61201e-07
6.62567e-07
6.63942e-07
6.65327e-07
6.66724e-07
6.68155e-07
6.69638e-07
6.71193e-07
6.7284e-07
6.746e-07
6.76513e-07
6.78645e-07
6.81138e-07
6.84134e-07
6.8813e-07
6.93093e-07
7.01632e-07
7.1003e-07
7.37013e-07
7.44359e-07
8.51137e-07
9.43712e-07
1.01482e-06
1.82565e-07
6.58216e-07
8.81155e-10
7.32674e-12
8.63868e-12
8.2162e-12
6.23721e-12
6.06126e-12
1.78689e-13
4.60484e-15
2.0674e-15
5.8465e-14
3.12828e-13
5.74795e-12
6.78365e-11
3.96336e-10
8.32252e-10
2.69077e-08
1.48387e-07
3.40406e-07
5.40116e-07
7.17876e-07
8.35605e-07
8.62376e-07
8.05633e-07
7.10682e-07
6.28558e-07
5.85649e-07
5.78379e-07
5.88431e-07
5.9984e-07
6.0599e-07
6.07445e-07
6.07024e-07
6.06685e-07
6.06955e-07
6.07617e-07
6.08378e-07
6.09114e-07
6.09823e-07
6.10536e-07
6.11274e-07
6.12039e-07
6.12831e-07
6.1365e-07
6.14496e-07
6.15371e-07
6.16278e-07
6.17216e-07
6.1819e-07
6.19199e-07
6.20246e-07
6.21332e-07
6.22459e-07
6.23628e-07
6.24842e-07
6.26103e-07
6.27412e-07
6.28771e-07
6.30181e-07
6.31646e-07
6.33167e-07
6.34745e-07
6.36383e-07
6.38081e-07
6.39843e-07
6.41666e-07
6.43538e-07
6.4543e-07
6.47301e-07
6.49109e-07
6.5083e-07
6.52455e-07
6.54003e-07
6.55466e-07
6.56855e-07
6.58211e-07
6.59563e-07
6.60922e-07
6.62295e-07
6.63693e-07
6.65134e-07
6.66634e-07
6.68208e-07
6.69876e-07
6.71664e-07
6.7362e-07
6.75821e-07
6.78412e-07
6.81554e-07
6.85752e-07
6.91003e-07
7.00097e-07
7.08805e-07
7.39101e-07
7.42575e-07
8.71204e-07
9.52495e-07
9.95124e-07
1.67638e-07
1.12059e-06
2.50688e-08
2.61336e-11
1.83341e-11
2.56946e-11
1.83022e-13
5.94457e-12
9.77537e-13
2.55377e-14
2.14815e-14
2.16418e-15
2.55115e-13
1.35842e-12
1.81855e-11
2.39519e-10
1.15121e-09
5.29176e-09
7.25887e-08
2.40992e-07
4.68139e-07
7.00981e-07
8.73728e-07
9.37855e-07
8.93894e-07
7.8608e-07
6.73548e-07
5.99159e-07
5.72597e-07
5.77519e-07
5.91945e-07
6.02597e-07
6.06684e-07
6.0683e-07
6.06089e-07
6.059e-07
6.06356e-07
6.07096e-07
6.07861e-07
6.08581e-07
6.09283e-07
6.09997e-07
6.10739e-07
6.11508e-07
6.12304e-07
6.13127e-07
6.13977e-07
6.14857e-07
6.15768e-07
6.16712e-07
6.17691e-07
6.18706e-07
6.19759e-07
6.20851e-07
6.21985e-07
6.23162e-07
6.24383e-07
6.25651e-07
6.26968e-07
6.28336e-07
6.29755e-07
6.31229e-07
6.3276e-07
6.34348e-07
6.35996e-07
6.37705e-07
6.3947e-07
6.41273e-07
6.43083e-07
6.44857e-07
6.46564e-07
6.48187e-07
6.49727e-07
6.51202e-07
6.52598e-07
6.53941e-07
6.55268e-07
6.56598e-07
6.5794e-07
6.59308e-07
6.60712e-07
6.62165e-07
6.6368e-07
6.65275e-07
6.66969e-07
6.68794e-07
6.70803e-07
6.73082e-07
6.75782e-07
6.79078e-07
6.83478e-07
6.89032e-07
6.98642e-07
7.07782e-07
7.41107e-07
7.41883e-07
8.91276e-07
9.52909e-07
9.0272e-07
1.53881e-07
9.54535e-07
3.18591e-08
5.08088e-10
2.03285e-11
5.3917e-11
8.6477e-11
1.60387e-10
1.7032e-13
2.07497e-14
8.07729e-15
1.46898e-14
5.1338e-13
2.96733e-12
1.22178e-11
9.24896e-11
7.90579e-10
4.70742e-09
3.15169e-08
1.68739e-07
4.03698e-07
6.72593e-07
8.84374e-07
9.79729e-07
9.57499e-07
8.55543e-07
7.28556e-07
6.27223e-07
5.76436e-07
5.69218e-07
5.82538e-07
5.96993e-07
6.04709e-07
6.06462e-07
6.05761e-07
6.05099e-07
6.05204e-07
6.05833e-07
6.0661e-07
6.07356e-07
6.08057e-07
6.08754e-07
6.09471e-07
6.10218e-07
6.10991e-07
6.1179e-07
6.12616e-07
6.1347e-07
6.14354e-07
6.1527e-07
6.16219e-07
6.17202e-07
6.18223e-07
6.19281e-07
6.20379e-07
6.21519e-07
6.22702e-07
6.2393e-07
6.25205e-07
6.2653e-07
6.27905e-07
6.29333e-07
6.30816e-07
6.32356e-07
6.33954e-07
6.3561e-07
6.37314e-07
6.39043e-07
6.40763e-07
6.42438e-07
6.44045e-07
6.45573e-07
6.47032e-07
6.4843e-07
6.49762e-07
6.51067e-07
6.52368e-07
6.5368e-07
6.55015e-07
6.56383e-07
6.57794e-07
6.5926e-07
6.60796e-07
6.62414e-07
6.64141e-07
6.66012e-07
6.68087e-07
6.70455e-07
6.7327e-07
6.76721e-07
6.81318e-07
6.87187e-07
6.97236e-07
7.07076e-07
7.42546e-07
7.43897e-07
9.0863e-07
7.94178e-07
7.14647e-07
1.40846e-07
9.1796e-07
1.47198e-07
2.93528e-09
4.00932e-10
7.18763e-11
3.60438e-11
4.41632e-11
4.04462e-13
2.22048e-14
2.87524e-16
5.6007e-14
8.82512e-13
9.76028e-12
4.62799e-11
1.06187e-10
2.46813e-10
3.28644e-09
1.12724e-08
1.20656e-07
3.45413e-07
6.19535e-07
8.43966e-07
9.62096e-07
9.71287e-07
8.96563e-07
7.78484e-07
6.65004e-07
5.92349e-07
5.67836e-07
5.74374e-07
5.89856e-07
6.01085e-07
6.05363e-07
6.05444e-07
6.04544e-07
6.04232e-07
6.04636e-07
6.05371e-07
6.06139e-07
6.06854e-07
6.07541e-07
6.08237e-07
6.0896e-07
6.09711e-07
6.10487e-07
6.1129e-07
6.12119e-07
6.12977e-07
6.13865e-07
6.14785e-07
6.15738e-07
6.16727e-07
6.17752e-07
6.18816e-07
6.19919e-07
6.21065e-07
6.22254e-07
6.23489e-07
6.24771e-07
6.26103e-07
6.27486e-07
6.28923e-07
6.30415e-07
6.31963e-07
6.33565e-07
6.35207e-07
6.36862e-07
6.38494e-07
6.40073e-07
6.41583e-07
6.43019e-07
6.44396e-07
6.4571e-07
6.46984e-07
6.48255e-07
6.49533e-07
6.50834e-07
6.52164e-07
6.53534e-07
6.54955e-07
6.56437e-07
6.57993e-07
6.59642e-07
6.61408e-07
6.63335e-07
6.65482e-07
6.67944e-07
6.70877e-07
6.74484e-07
6.7927e-07
6.8547e-07
6.95866e-07
7.06758e-07
7.43e-07
7.49739e-07
9.20072e-07
6.15071e-07
5.30755e-07
1.27053e-07
9.13449e-07
4.26569e-07
2.65538e-08
1.62383e-09
2.64377e-10
6.56615e-11
1.50803e-11
6.57179e-13
3.94128e-14
1.41238e-15
1.56185e-14
5.04124e-13
1.08883e-11
8.13406e-11
3.52217e-10
6.70937e-10
4.17886e-09
2.82534e-08
7.93287e-08
2.69698e-07
5.1403e-07
7.2969e-07
8.69664e-07
9.21813e-07
8.93296e-07
8.07249e-07
7.01941e-07
6.17676e-07
5.75729e-07
5.70641e-07
5.82974e-07
5.96095e-07
6.03136e-07
6.04752e-07
6.04094e-07
6.03463e-07
6.03562e-07
6.04176e-07
6.0494e-07
6.05674e-07
6.06362e-07
6.07042e-07
6.07742e-07
6.0847e-07
6.09225e-07
6.10005e-07
6.10811e-07
6.11644e-07
6.12505e-07
6.13398e-07
6.14322e-07
6.15281e-07
6.16274e-07
6.17305e-07
6.18375e-07
6.19485e-07
6.20637e-07
6.21833e-07
6.23076e-07
6.24366e-07
6.25705e-07
6.27097e-07
6.28543e-07
6.30042e-07
6.31586e-07
6.33158e-07
6.34725e-07
6.36255e-07
6.37727e-07
6.39132e-07
6.40475e-07
6.41771e-07
6.43027e-07
6.44273e-07
6.45525e-07
6.46789e-07
6.48081e-07
6.49409e-07
6.50786e-07
6.52217e-07
6.53717e-07
6.55295e-07
6.56977e-07
6.58788e-07
6.60774e-07
6.62995e-07
6.6555e-07
6.68594e-07
6.72352e-07
6.77319e-07
6.83854e-07
6.94514e-07
7.06802e-07
7.42454e-07
7.59199e-07
9.22121e-07
4.88988e-07
3.55421e-07
1.08895e-07
9.12649e-07
7.25054e-07
1.29782e-07
8.58265e-09
2.92174e-10
5.91561e-11
4.2743e-12
1.3923e-13
8.36321e-15
3.78139e-16
1.70133e-14
1.231e-13
6.06886e-12
9.95333e-11
1.13823e-09
2.21606e-07
5.5104e-10
6.63376e-09
2.29615e-08
1.49892e-07
3.46682e-07
5.49322e-07
7.13988e-07
8.15282e-07
8.43218e-07
8.04945e-07
7.26469e-07
6.45263e-07
5.91616e-07
5.73301e-07
5.78533e-07
5.90794e-07
5.99829e-07
6.03371e-07
6.03516e-07
6.02844e-07
6.02657e-07
6.03077e-07
6.03787e-07
6.04529e-07
6.05227e-07
6.05899e-07
6.06581e-07
6.07287e-07
6.08021e-07
6.0878e-07
6.09564e-07
6.10374e-07
6.11211e-07
6.12078e-07
6.12975e-07
6.13905e-07
6.14869e-07
6.15869e-07
6.16907e-07
6.17983e-07
6.19101e-07
6.20261e-07
6.21466e-07
6.22717e-07
6.24017e-07
6.25366e-07
6.26767e-07
6.28215e-07
6.29699e-07
6.31193e-07
6.32667e-07
6.34096e-07
6.35467e-07
6.36779e-07
6.38042e-07
6.39272e-07
6.40486e-07
6.417e-07
6.42922e-07
6.44169e-07
6.45452e-07
6.4678e-07
6.48162e-07
6.49604e-07
6.51117e-07
6.5272e-07
6.54432e-07
6.56283e-07
6.5832e-07
6.60607e-07
6.63244e-07
6.66393e-07
6.70292e-07
6.75437e-07
6.82311e-07
6.93203e-07
7.07037e-07
7.413e-07
7.70475e-07
8.19153e-07
4.32291e-07
2.35116e-07
8.98022e-08
9.12734e-07
1.02624e-06
4.01925e-10
2.61698e-07
4.81608e-11
3.1248e-11
1.00345e-12
9.43864e-14
1.53728e-15
1.30077e-16
1.24784e-16
4.53785e-14
4.41901e-12
1.17016e-10
2.10964e-09
1.32139e-09
2.98012e-10
5.90007e-10
8.58128e-09
4.90945e-08
1.86498e-07
3.64461e-07
5.37861e-07
6.75707e-07
7.55769e-07
7.7024e-07
7.30953e-07
6.67042e-07
6.11233e-07
5.82107e-07
5.78094e-07
5.86579e-07
5.95989e-07
6.01238e-07
6.02596e-07
6.02264e-07
6.01928e-07
6.02134e-07
6.02734e-07
6.03457e-07
6.04163e-07
6.04835e-07
6.05504e-07
6.06192e-07
6.06906e-07
6.07645e-07
6.08409e-07
6.09197e-07
6.10012e-07
6.10855e-07
6.11728e-07
6.12632e-07
6.13569e-07
6.14541e-07
6.15548e-07
6.16594e-07
6.17679e-07
6.18806e-07
6.19977e-07
6.21192e-07
6.22454e-07
6.23765e-07
6.25122e-07
6.26518e-07
6.27935e-07
6.29346e-07
6.30725e-07
6.32055e-07
6.33332e-07
6.34561e-07
6.35754e-07
6.36927e-07
6.38097e-07
6.39275e-07
6.40475e-07
6.41709e-07
6.42983e-07
6.44306e-07
6.45686e-07
6.47133e-07
6.48657e-07
6.50277e-07
6.52011e-07
6.53894e-07
6.55972e-07
6.5831e-07
6.61018e-07
6.64261e-07
6.68296e-07
6.73616e-07
6.80817e-07
6.91973e-07
7.07247e-07
7.40178e-07
7.80442e-07
6.80806e-07
3.71108e-07
1.73453e-07
7.813e-08
9.12656e-07
3.88529e-07
4.45499e-07
5.45824e-08
7.26047e-10
3.20519e-11
1.1025e-12
6.33463e-14
5.82297e-15
9.8011e-17
1.28347e-16
2.7569e-14
8.3285e-13
7.82631e-12
4.80528e-11
6.3264e-11
6.04975e-11
2.52774e-11
1.2424e-09
9.79891e-09
8.98713e-08
2.3208e-07
3.87419e-07
5.32542e-07
6.45323e-07
7.06803e-07
7.1234e-07
6.7719e-07
6.29834e-07
5.9524e-07
5.82134e-07
5.84635e-07
5.92428e-07
5.98575e-07
6.0124e-07
6.01608e-07
6.01358e-07
6.01399e-07
6.01852e-07
6.02518e-07
6.03219e-07
6.03895e-07
6.04558e-07
6.05231e-07
6.05927e-07
6.06648e-07
6.07393e-07
6.08162e-07
6.08957e-07
6.09778e-07
6.10628e-07
6.11508e-07
6.1242e-07
6.13366e-07
6.14346e-07
6.15363e-07
6.16419e-07
6.17515e-07
6.18654e-07
6.19836e-07
6.21064e-07
6.22338e-07
6.23652e-07
6.24994e-07
6.2634e-07
6.27665e-07
6.28952e-07
6.3019e-07
6.31382e-07
6.32538e-07
6.33671e-07
6.34794e-07
6.35924e-07
6.37071e-07
6.38247e-07
6.39461e-07
6.4072e-07
6.42032e-07
6.43407e-07
6.44852e-07
6.46381e-07
6.4801e-07
6.49761e-07
6.51664e-07
6.53772e-07
6.56155e-07
6.58927e-07
6.62264e-07
6.6644e-07
6.71956e-07
6.79499e-07
6.91001e-07
7.07511e-07
7.39745e-07
7.8759e-07
6.25134e-07
3.16209e-07
1.58651e-07
8.19994e-08
9.12876e-07
7.90798e-07
6.21977e-07
1.23975e-07
3.00238e-09
6.72427e-11
1.94358e-13
3.50044e-15
1.26965e-15
1.02279e-16
1.1253e-16
3.06215e-14
2.44736e-13
6.72954e-13
1.74743e-12
9.67667e-13
5.61318e-12
1.62999e-11
2.93002e-10
4.13344e-09
3.65018e-08
1.50916e-07
2.7802e-07
4.05556e-07
5.25902e-07
6.19753e-07
6.69228e-07
6.71564e-07
6.43546e-07
6.10708e-07
5.9056e-07
5.85816e-07
5.89982e-07
5.95783e-07
5.99482e-07
6.00791e-07
6.00911e-07
6.00916e-07
6.01224e-07
6.01794e-07
6.02466e-07
6.03142e-07
6.03804e-07
6.04467e-07
6.05148e-07
6.05851e-07
6.06579e-07
6.0733e-07
6.08106e-07
6.08908e-07
6.09738e-07
6.10596e-07
6.11485e-07
6.12407e-07
6.13362e-07
6.14353e-07
6.15382e-07
6.1645e-07
6.17559e-07
6.18711e-07
6.19908e-07
6.21147e-07
6.22418e-07
6.23702e-07
6.24977e-07
6.26221e-07
6.27422e-07
6.28579e-07
6.29698e-07
6.30791e-07
6.31872e-07
6.32954e-07
6.34049e-07
6.35167e-07
6.36319e-07
6.37514e-07
6.38757e-07
6.40059e-07
6.41426e-07
6.42869e-07
6.44401e-07
6.46039e-07
6.47806e-07
6.49736e-07
6.51882e-07
6.54321e-07
6.57174e-07
6.60628e-07
6.64976e-07
6.70742e-07
6.78672e-07
6.90639e-07
7.08145e-07
7.40448e-07
7.92736e-07
5.98845e-07
2.71635e-07
1.80379e-07
9.85581e-08
9.12748e-07
3.81651e-06
5.30152e-07
5.56592e-09
6.12974e-09
7.07e-10
1.28202e-11
2.28264e-13
9.51709e-15
1.77711e-16
1.07855e-16
6.21184e-15
1.3901e-14
6.44855e-14
2.53568e-13
6.2549e-13
1.11826e-12
6.65232e-13
4.20546e-11
7.96041e-10
5.76925e-09
8.03141e-08
1.91478e-07
2.97762e-07
4.09513e-07
5.17736e-07
6.02298e-07
6.45927e-07
6.47967e-07
6.26263e-07
6.03173e-07
5.90927e-07
5.89531e-07
5.9336e-07
5.97442e-07
5.99758e-07
6.00534e-07
6.00703e-07
6.0092e-07
6.0137e-07
6.0198e-07
6.02642e-07
6.03304e-07
6.03963e-07
6.04632e-07
6.0532e-07
6.06031e-07
6.06765e-07
6.07524e-07
6.08308e-07
6.09118e-07
6.09956e-07
6.10824e-07
6.11723e-07
6.12655e-07
6.13622e-07
6.14625e-07
6.15667e-07
6.16749e-07
6.17873e-07
6.19039e-07
6.20242e-07
6.21467e-07
6.22694e-07
6.23899e-07
6.25068e-07
6.26194e-07
6.27281e-07
6.28339e-07
6.29382e-07
6.30421e-07
6.3147e-07
6.32538e-07
6.33636e-07
6.34771e-07
6.35954e-07
6.37191e-07
6.3849e-07
6.3986e-07
6.41312e-07
6.42858e-07
6.4452e-07
6.46323e-07
6.48304e-07
6.50518e-07
6.53048e-07
6.56025e-07
6.59646e-07
6.64229e-07
6.70314e-07
6.78683e-07
6.9121e-07
7.09562e-07
7.42451e-07
7.96148e-07
6.21322e-07
2.67535e-07
2.128e-07
1.29522e-07
9.13674e-07
2.42066e-07
7.01387e-08
3.60757e-09
9.46362e-10
1.32748e-10
2.55678e-12
1.14234e-13
1.82682e-14
1.28967e-15
1.64225e-16
2.39418e-16
2.26673e-15
4.37608e-14
1.79581e-13
4.54967e-13
3.64685e-13
1.21499e-12
1.60814e-11
1.77179e-10
1.6781e-09
1.51838e-08
9.69989e-08
2.00663e-07
3.05541e-07
4.16034e-07
5.2104e-07
6.00212e-07
6.3814e-07
6.37764e-07
6.18521e-07
6.00325e-07
5.91929e-07
5.91923e-07
5.95338e-07
5.98471e-07
6.00126e-07
6.00701e-07
6.00936e-07
6.01269e-07
6.01785e-07
6.02409e-07
6.03064e-07
6.0372e-07
6.04379e-07
6.05053e-07
6.05747e-07
6.06463e-07
6.07204e-07
6.07969e-07
6.08758e-07
6.09575e-07
6.10421e-07
6.11297e-07
6.12204e-07
6.13145e-07
6.14121e-07
6.15134e-07
6.16187e-07
6.17279e-07
6.18411e-07
6.19571e-07
6.20744e-07
6.21908e-07
6.23042e-07
6.24137e-07
6.25191e-07
6.26212e-07
6.27211e-07
6.28205e-07
6.29204e-07
6.30221e-07
6.31267e-07
6.32351e-07
6.3348e-07
6.34666e-07
6.35913e-07
6.37228e-07
6.38621e-07
6.40102e-07
6.41688e-07
6.43402e-07
6.45272e-07
6.47339e-07
6.4966e-07
6.52319e-07
6.55453e-07
6.5928e-07
6.6414e-07
6.70593e-07
6.7945e-07
6.92574e-07
7.11643e-07
7.45319e-07
7.98642e-07
6.24724e-07
2.76376e-07
2.35241e-07
1.68464e-07
9.25179e-07
1.52436e-07
1.17343e-08
5.93753e-11
7.33931e-11
1.64686e-11
3.25929e-13
2.86632e-13
5.02104e-13
1.26001e-14
4.52637e-16
2.62598e-16
2.03432e-16
1.8526e-16
1.81431e-16
5.35011e-14
6.49677e-14
1.08161e-14
3.55583e-12
1.39331e-11
2.54304e-10
1.00899e-09
2.91012e-08
1.17839e-07
2.26097e-07
3.37322e-07
4.49509e-07
5.49002e-07
6.1615e-07
6.40644e-07
6.3199e-07
6.1178e-07
5.96839e-07
5.91878e-07
5.9355e-07
5.97037e-07
5.99579e-07
6.00721e-07
6.01093e-07
6.01344e-07
6.0175e-07
6.02313e-07
6.02947e-07
6.03595e-07
6.04243e-07
6.04899e-07
6.05571e-07
6.06265e-07
6.06982e-07
6.07722e-07
6.08487e-07
6.09277e-07
6.10094e-07
6.1094e-07
6.11816e-07
6.12725e-07
6.13667e-07
6.14644e-07
6.15659e-07
6.16711e-07
6.17797e-07
6.18905e-07
6.20015e-07
6.21107e-07
6.22163e-07
6.23174e-07
6.24139e-07
6.25069e-07
6.25977e-07
6.26885e-07
6.2781e-07
6.28767e-07
6.29767e-07
6.30823e-07
6.31944e-07
6.33135e-07
6.34401e-07
6.35745e-07
6.37179e-07
6.38713e-07
6.40368e-07
6.42162e-07
6.44119e-07
6.46275e-07
6.48683e-07
6.51436e-07
6.54692e-07
6.58687e-07
6.63785e-07
6.70572e-07
6.79869e-07
6.93509e-07
7.13053e-07
7.47476e-07
7.97921e-07
6.74083e-07
2.98115e-07
2.53367e-07
2.02194e-07
1.00341e-06
8.9924e-08
1.41513e-10
5.34653e-11
4.73069e-11
1.25024e-10
1.3241e-11
2.21303e-12
4.69506e-13
1.27944e-13
4.87424e-15
1.15793e-15
6.02025e-16
3.46097e-14
2.46381e-14
1.97565e-13
6.44875e-14
2.19105e-13
1.25972e-12
2.32377e-11
3.3883e-11
1.10519e-10
1.49026e-08
8.48985e-08
1.98607e-07
3.14796e-07
4.26495e-07
5.27413e-07
6.02302e-07
6.37962e-07
6.36984e-07
6.17907e-07
6.00199e-07
5.9234e-07
5.92667e-07
5.96125e-07
5.99114e-07
6.00603e-07
6.01085e-07
6.013e-07
6.01641e-07
6.02158e-07
6.0277e-07
6.03405e-07
6.04039e-07
6.04677e-07
6.0533e-07
6.06003e-07
6.06698e-07
6.07416e-07
6.08157e-07
6.08923e-07
6.09715e-07
6.10534e-07
6.11383e-07
6.12263e-07
6.13175e-07
6.14121e-07
6.15104e-07
6.16121e-07
6.17169e-07
6.18234e-07
6.19296e-07
6.20333e-07
6.21324e-07
6.22254e-07
6.23117e-07
6.23921e-07
6.24671e-07
6.25406e-07
6.26152e-07
6.26944e-07
6.27813e-07
6.28781e-07
6.29849e-07
6.31011e-07
6.32276e-07
6.33644e-07
6.35127e-07
6.36732e-07
6.38473e-07
6.40345e-07
6.42337e-07
6.44453e-07
6.46755e-07
6.49381e-07
6.52553e-07
6.56553e-07
6.61764e-07
6.68737e-07
6.7827e-07
6.92175e-07
7.11837e-07
7.4679e-07
7.928e-07
7.21378e-07
3.3229e-07
2.74916e-07
2.19225e-07
6.65235e-07
8.0703e-09
1.03799e-11
3.86261e-13
1.02114e-11
6.65098e-13
4.04612e-11
1.34549e-10
1.5267e-10
5.21317e-12
2.60273e-12
1.61982e-13
3.4459e-15
5.18764e-14
1.11737e-13
1.64007e-13
6.16358e-14
7.5411e-14
2.5857e-12
1.33361e-11
2.03316e-10
1.24042e-09
2.17667e-08
9.92505e-08
2.19432e-07
3.42066e-07
4.55539e-07
5.51453e-07
6.15922e-07
6.40343e-07
6.32445e-07
6.12291e-07
5.96902e-07
5.91607e-07
5.93212e-07
5.9674e-07
5.99298e-07
6.00414e-07
6.00753e-07
6.00981e-07
6.01372e-07
6.01917e-07
6.02529e-07
6.03151e-07
6.03773e-07
6.04402e-07
6.05048e-07
6.05715e-07
6.06403e-07
6.07113e-07
6.07847e-07
6.08605e-07
6.09389e-07
6.10201e-07
6.11042e-07
6.11913e-07
6.12818e-07
6.13756e-07
6.1473e-07
6.15741e-07
6.16783e-07
6.17847e-07
6.18912e-07
6.19956e-07
6.20955e-07
6.21894e-07
6.22767e-07
6.23582e-07
6.24345e-07
6.25094e-07
6.25852e-07
6.26655e-07
6.2753e-07
6.285e-07
6.29563e-07
6.30715e-07
6.31963e-07
6.33308e-07
6.34759e-07
6.36323e-07
6.37999e-07
6.39736e-07
6.41396e-07
6.42934e-07
6.44569e-07
6.46626e-07
6.49419e-07
6.53242e-07
6.584e-07
6.65301e-07
6.74647e-07
6.88283e-07
7.07414e-07
7.42566e-07
7.81582e-07
8.09263e-07
3.65355e-07
2.99286e-07
2.17586e-07
3.5566e-07
1.17577e-09
9.12475e-15
2.51335e-12
3.14532e-12
1.76462e-12
1.42143e-12
1.3065e-11
1.01016e-10
3.35877e-11
3.67278e-10
6.247e-12
8.37373e-14
4.99386e-14
5.78624e-14
7.5096e-14
1.62806e-13
6.64245e-13
1.83393e-12
1.22326e-10
9.52254e-10
7.81988e-09
5.37287e-08
1.52326e-07
2.74201e-07
3.96163e-07
5.0551e-07
5.87678e-07
6.30778e-07
6.36312e-07
6.20612e-07
6.02889e-07
5.9338e-07
5.92184e-07
5.94928e-07
5.97851e-07
5.9952e-07
6.00156e-07
6.00427e-07
6.00756e-07
6.01241e-07
6.01823e-07
6.02436e-07
6.03052e-07
6.03673e-07
6.04307e-07
6.0496e-07
6.05634e-07
6.06329e-07
6.07048e-07
6.0779e-07
6.08557e-07
6.09351e-07
6.10173e-07
6.11025e-07
6.11909e-07
6.12825e-07
6.13777e-07
6.14766e-07
6.15794e-07
6.16858e-07
6.17952e-07
6.1906e-07
6.20159e-07
6.2123e-07
6.22259e-07
6.23243e-07
6.24191e-07
6.25116e-07
6.2604e-07
6.26979e-07
6.2795e-07
6.28963e-07
6.30028e-07
6.31154e-07
6.32344e-07
6.33601e-07
6.34927e-07
6.36329e-07
6.37812e-07
6.39374e-07
6.40968e-07
6.42473e-07
6.43867e-07
6.45376e-07
6.47329e-07
6.5002e-07
6.53657e-07
6.58243e-07
6.64097e-07
6.72217e-07
6.8462e-07
7.02402e-07
7.36661e-07
7.68929e-07
9.19687e-07
4.15336e-07
3.25495e-07
2.14667e-07
8.89053e-07
1.02905e-08
3.16642e-10
9.82906e-11
2.05825e-11
1.08829e-11
8.17129e-11
7.95391e-13
2.73798e-13
2.0273e-13
1.07048e-13
2.95717e-14
1.16287e-14
1.21111e-14
1.13751e-14
5.42233e-14
6.34977e-13
4.78554e-12
4.65479e-11
4.48489e-10
3.10104e-09
3.26126e-08
1.08774e-07
2.15796e-07
3.36202e-07
4.55124e-07
5.53588e-07
6.14486e-07
6.34126e-07
6.25608e-07
6.08612e-07
5.96554e-07
5.92668e-07
5.94019e-07
5.96749e-07
5.98745e-07
5.99698e-07
6.001e-07
6.00428e-07
6.00872e-07
6.01426e-07
6.02029e-07
6.02644e-07
6.03264e-07
6.03895e-07
6.04543e-07
6.05211e-07
6.05902e-07
6.06614e-07
6.0735e-07
6.08111e-07
6.08898e-07
6.09714e-07
6.10558e-07
6.11434e-07
6.12343e-07
6.13286e-07
6.14266e-07
6.15285e-07
6.16344e-07
6.17444e-07
6.18583e-07
6.19748e-07
6.2092e-07
6.2208e-07
6.2321e-07
6.24302e-07
6.25358e-07
6.26386e-07
6.274e-07
6.28412e-07
6.29434e-07
6.30479e-07
6.31555e-07
6.32671e-07
6.33833e-07
6.35049e-07
6.36323e-07
6.37661e-07
6.39074e-07
6.40567e-07
6.42142e-07
6.43809e-07
6.45612e-07
6.47663e-07
6.50129e-07
6.53203e-07
6.57021e-07
6.61551e-07
6.67114e-07
6.74745e-07
6.86385e-07
7.03251e-07
7.35059e-07
7.67902e-07
9.02192e-07
4.82398e-07
3.50722e-07
2.13822e-07
9.37946e-07
5.6104e-07
4.13834e-10
1.65691e-10
1.8539e-11
1.51359e-11
4.08033e-12
8.95457e-13
3.2482e-14
8.23579e-15
4.06851e-16
1.54136e-16
2.92732e-15
9.0177e-15
1.9957e-14
1.3382e-13
1.50599e-12
8.97699e-12
2.60676e-10
5.67014e-10
2.03806e-08
8.17339e-08
1.71808e-07
2.8172e-07
4.0171e-07
5.12272e-07
5.90831e-07
6.26482e-07
6.27661e-07
6.13678e-07
6.00485e-07
5.94295e-07
5.93991e-07
5.9613e-07
5.98213e-07
5.9943e-07
6.00004e-07
6.00376e-07
6.00801e-07
6.01328e-07
6.01917e-07
6.02528e-07
6.03148e-07