/*--------------------------------*- C++ -*----------------------------------*\
  =========                 |
  \\      /  F ield         | OpenFOAM: The Open Source CFD Toolbox
   \\    /   O peration     | Website:  https://openfoam.org
    \\  /    A nd           | Version:  9
     \\/     M anipulation  |
\*---------------------------------------------------------------------------*/
FoamFile
{
    format      ascii;
    class       volScalarField;
    location    "3000";
    object      omega;
}
// * * * * * * * * * * * * * * * * * * * * * * * * * * * * * * * * * * * * * //

dimensions      [0 0 -1 0 0 0 0];

internalField   nonuniform List<scalar> 
13446
(
36.009
36.5653
1.23296
37.0924
1.78325
0.0352704
0.00799242
0.00127213
37.5954
2.07787
0.0963648
0.0151173
0.00250814
0.00509949
38.0702
2.36975
0.0849027
0.00592867
0.00377956
0.00692846
0.241506
38.5201
2.54657
0.146184
0.016897
0.0221842
0.203473
0.619332
1.07992
1.30258
1.1621
0.803063
0.529577
0.572429
0.858573
1.15523
1.33545
1.41826
1.46923
1.52967
1.60827
1.69912
1.79614
1.89718
2.00267
2.11359
2.23063
2.35417
2.4845
2.62194
2.76689
2.91957
38.9444
2.93113
0.223911
0.0727004
0.300546
0.809094
1.18612
1.50642
1.72859
1.59363
1.09496
0.569132
0.417669
0.672886
1.03883
1.28629
1.39598
1.44513
1.49542
1.56622
1.65312
1.74808
1.84718
1.9502
2.05819
2.17205
2.29225
2.41909
2.55288
2.69395
2.84277
2.99929
3.16434
26.4561
27.7846
29.1933
30.6767
32.2344
33.8722
35.5922
37.3946
39.2819
41.2577
43.3316
45.5128
47.8094
50.2362
52.8139
55.5663
58.5428
61.7759
65.3928
69.3775
74.1119
79.4688
86.5383
97.9067
115.082
142.212
39.3479
3.44638
0.33701
0.159157
1.26335
1.98814
1.81825
1.56996
1.70934
1.72732
1.267
0.627583
0.333602
0.533473
0.930177
1.22819
1.36633
1.4194
1.46221
1.52484
1.60668
1.69899
1.79612
1.89681
2.00193
2.11256
2.22936
2.35266
2.48273
2.61989
2.76449
2.91702
3.07795
3.24694
24.516
25.7501
27.0583
28.4368
29.8838
31.4035
33.002
34.6797
36.4364
38.2752
40.2013
42.2238
44.3502
46.5894
48.9564
51.4686
54.1523
57.0566
60.2101
63.746
67.6486
72.3439
77.6417
84.8217
96.3009
114.274
145.757
39.7258
0.625785
0.0731382
1.14023
3.07269
3.49601
2.29035
1.1693
1.16422
1.44378
1.20821
0.657324
0.351338
0.499841
0.866129
1.16789
1.32252
1.3857
1.42826
1.48523
1.56133
1.64981
1.74445
1.84284
1.94525
2.05273
2.16611
2.28582
2.41214
2.54536
2.68583
2.83393
2.99005
3.15481
3.32809
3.51067
22.6893
23.8356
25.048
26.3253
27.6667
29.0766
30.5593
32.1185
33.7522
35.4611
37.2514
39.1272
41.0979
43.1681
45.348
47.6524
50.1006
52.7149
55.5436
58.6156
62.0676
65.884
70.5269
75.755
83.0466
94.6251
113.549
150.082
40.0889
2.05746
0.242652
2.94657
5.44926
4.93207
2.5255
0.674332
0.495278
0.897436
0.89994
0.606047
0.450317
0.586255
0.867109
1.11171
1.25829
1.33557
1.38936
1.4475
1.51871
1.60165
1.69236
1.78805
1.88793
1.99247
2.10249
2.21858
2.3411
2.47035
2.60663
2.75032
2.90183
3.06155
3.22998
3.40766
3.59417
15.5527
16.3478
17.1858
18.0663
18.989
19.9552
20.9691
22.0356
23.1591
24.3408
25.5839
26.8898
28.2638
29.7096
31.2266
32.8138
34.4759
36.2169
38.0435
39.9597
41.975
44.0958
46.3364
48.717
51.2609
54.0129
57.0036
60.3685
64.0899
68.6781
73.8197
81.2449
92.9019
112.826
155.683
40.4436
0.0241546
0.538702
4.40796
7.11384
5.63784
2.66349
0.833188
0.479891
0.531274
0.487313
0.468673
0.57322
0.748784
0.921094
1.05988
1.16941
1.26058
1.33933
1.41036
1.48057
1.55647
1.64074
1.73247
1.82976
1.93172
2.0386
2.15109
2.26976
2.39498
2.52707
2.66634
2.81317
2.96798
3.13119
3.3032
3.48467
3.67553
3.87642
14.3348
15.0747
15.8537
16.6714
17.5275
18.4238
19.363
20.3496
21.3866
22.4786
23.6278
24.837
26.1076
27.445
28.851
30.325
31.8669
33.4823
35.1739
36.949
38.8119
40.7699
42.8303
45.0089
47.3214
49.7957
52.4695
55.3737
58.6514
62.2757
66.8022
71.8477
79.4347
91.1251
112.087
162.063
40.574
1.5614
1.20138
3.29446
5.55656
4.63321
2.70092
1.73431
1.21608
0.580693
0.202765
0.338722
0.68761
0.922793
0.993785
1.00671
1.05517
1.1551
1.27109
1.37013
1.44719
1.51621
1.59107
1.67655
1.77063
1.87029
1.97441
2.08344
2.19824
2.31939
2.44724
2.58208
2.72424
2.87411
3.03211
3.19868
3.37423
3.5593
3.75448
3.95966
4.17557
10.2181
10.7571
11.3205
11.9128
12.5363
13.1921
13.8805
14.6031
15.3603
16.1527
16.9826
17.8524
18.7648
19.7234
20.732
21.7936
22.9103
24.0851
25.3213
26.6218
27.9868
29.416
30.9124
32.4803
34.1238
35.848
37.6558
39.5554
41.5551
43.6703
45.9152
48.3156
50.9111
53.7303
56.9203
60.4418
64.9102
69.8582
77.6312
89.3639
111.174
169.707
39.0541
1.77023
8.94942
4.49259
0.813461
1.81422
2.12558
2.15629
1.60395
0.648361
0.132353
0.352109
0.821712
1.07498
1.05717
0.949165
0.922814
1.0213
1.17994
1.32076
1.41549
1.48109
1.54493
1.62148
1.71088
1.8081
1.90981
2.01567
2.12667
2.24371
2.36729
2.49768
2.63516
2.78009
2.93288
3.09395
3.26374
3.44269
3.63126
3.83003
4.03962
4.25991
4.49203
4.73681
4.99423
9.88297
10.4035
10.9498
11.525
12.1304
12.7662
13.433
14.1321
14.8647
15.6323
16.4369
17.2805
18.1658
19.0964
20.0753
21.1063
22.1901
23.3307
24.5314
25.7933
27.1162
28.5016
29.9531
31.4733
33.0676
34.739
36.4922
38.3342
40.2739
42.323
44.4999
46.8267
49.3421
52.0774
55.177
58.6029
63.0168
67.854
75.8534
87.6715
110.046
179.687
35.6825
39.7335
158.237
20.9586
1.52837
0.00906685
0.699376
1.11672
0.864052
0.345494
0.172799
0.526054
1.00215
1.20879
1.10641
0.895089
0.791796
0.874679
1.06854
1.25564
1.3778
1.44735
1.50245
1.5689
1.65177
1.74552
1.84473
1.94767
2.05508
2.16808
2.28736
2.41327
2.54607
2.68607
2.83366
2.98924
3.15324
3.32609
3.50828
3.70027
3.90254
4.11572
4.34035
4.57692
4.8262
5.08814
5.3635
9.54558
10.0488
10.5788
11.1368
11.7229
12.3378
12.9828
13.6592
14.3682
15.1114
15.8905
16.7075
17.5655
18.4679
19.4176
20.417
21.4684
22.5754
23.7389
24.961
26.2418
27.5836
28.9889
30.462
32.0069
33.6256
35.3228
37.1069
38.9848
40.9705
43.0781
45.331
47.7664
50.4147
53.4303
56.7553
61.128
65.854
74.1376
86.085
108.914
190.099
81.049
277.792
1078.61
204.412
13.5756
0.597261
0.181947
0.167783
0.0675746
0.0709688
0.25291
0.723512
1.18186
1.32426
1.14739
0.8579
0.688062
0.741386
0.948636
1.17061
1.323
1.40614
1.46053
1.51982
1.5953
1.68379
1.77945
1.87935
1.9834
2.09255
2.20759
2.32902
2.45713
2.59221
2.73461
2.88471
3.04294
3.20971
3.38549
3.57073
3.76593
3.97159
4.18825
4.41649
4.65686
4.91005
5.17687
5.45718
5.75223
6.06301
6.39029
6.73466
7.09694
7.47794
7.87858
8.29972
8.74246
9.20767
9.69687
10.2108
10.7503
11.3163
11.9104
12.5335
13.1872
13.8725
14.591
15.3445
16.1352
16.9661
17.8401
18.7599
19.728
20.7466
21.8183
22.9448
24.1267
25.3653
26.663
28.023
29.4486
30.9425
32.5084
34.1502
35.8758
37.6921
39.6126
41.6514
43.8284
46.1856
48.7487
51.6816
54.9106
59.2558
63.8666
72.4993
84.6882
107.863
202.455
361.827
4672.83
57343.9
1260.07
110.928
1.65025
0.00181839
0.0906061
0.373177
0.389755
0.437745
0.862343
1.30303
1.39895
1.17073
0.835644
0.62233
0.640352
0.833383
1.06491
1.24013
1.34542
1.41229
1.47311
1.54331
1.62488
1.71491
1.8108
1.91149
2.01708
2.1281
2.2451
2.3685
2.49864
2.63587
2.78053
2.93302
3.09374
3.26313
3.44165
3.62976
3.82797
4.0368
4.25678
4.48849
4.73254
4.98947
5.26007
5.54499
5.84487
6.16046
6.49248
6.84178
7.20914
7.59552
8.00175
8.42883
8.87767
9.34919
9.84441
10.3645
10.9106
11.4838
12.0853
12.7163
13.3779
14.0718
14.7997
15.5641
16.3678
17.2132
18.1033
19.04
20.0254
21.0614
22.1498
23.2914
24.4882
25.7425
27.0565
28.4337
29.8767
31.3889
32.9758
34.6429
36.3987
38.2533
40.2229
42.3259
44.6051
47.0862
49.937
53.0757
57.4068
61.8958
70.9979
83.4434
107.572
216.908
51.1058
780.84
9750.89
486.431
41.0566
4.4663
0.389592
0.171237
0.668373
0.687508
0.705006
1.05336
1.3968
1.41555
1.14635
0.795565
0.568709
0.560613
0.722421
0.937766
1.12243
1.25483
1.34911
1.42489
1.49601
1.57062
1.65262
1.74261
1.83936
1.94159
2.0489
2.16163
2.28036
2.40558
2.53764
2.67688
2.82366
2.97836
3.14141
3.31324
3.49432
3.68512
3.88614
4.0979
4.32096
4.55589
4.8033
5.06379
5.33804
5.62668
5.93049
6.2502
6.58657
6.94041
7.31253
7.70383
8.11519
8.54753
9.00184
9.47911
9.98044
10.5068
11.0593
11.6391
12.2473
12.8854
13.5546
14.2572
14.9953
15.7718
16.5891
17.4491
18.354
19.3053
20.3055
21.3557
22.4571
23.6117
24.8227
26.0905
27.4195
28.8119
30.271
31.8023
33.4107
35.1053
36.8956
38.7961
40.826
43.0268
45.4282
48.2009
51.2591
55.5883
59.9508
69.6534
82.3213
108.399
234.955
37.63
110.446
1657.56
194.844
14.0131
0.537092
0.068855
0.148864
0.320287
0.514214
0.89
1.30219
1.49762
1.38171
1.04915
0.691166
0.475408
0.462591
0.59676
0.785219
0.969708
1.13118
1.26493
1.36968
1.45092
1.52134
1.59401
1.6759
1.76741
1.86606
1.96993
2.07868
2.19286
2.31317
2.44007
2.57392
2.71503
2.86376
3.02052
3.18572
3.35981
3.54325
3.73652
3.94012
4.1546
4.38049
4.61839
4.86887
5.13261
5.41023
5.70243
6.00993
6.33348
6.67382
7.03179
7.40823
7.80398
8.21999
8.65718
9.11646
9.5989
10.1055
10.6373
11.1956
11.7811
12.3957
13.0405
13.7178
14.4299
15.1789
15.9674
16.7971
17.6697
18.5871
19.5516
20.5637
21.6255
22.7382
23.9048
25.1268
26.4074
27.7489
29.1553
30.6312
32.1825
33.8156
35.5415
37.3736
39.3334
41.4593
43.7863
46.482
49.4668
53.7962
58.0402
68.5209
81.214
110.863
258.165
41.2977
40.3377
280.114
75.2629
5.56073
0.551534
0.0113884
0.514589
0.669675
0.746239
1.11921
1.48398
1.53662
1.27902
0.870795
0.504824
0.315223
0.317686
0.439203
0.606881
0.79127
0.982241
1.16048
1.30311
1.40333
1.47489
1.53933
1.61178
1.69645
1.79075
1.8912
1.99624
2.10609
2.22158
2.34335
2.47183
2.60732
2.75013
2.90065
3.05927
3.22644
3.40258
3.58817
3.78368
3.98964
4.20657
4.43505
4.67561
4.92891
5.19554
5.4762
5.77157
6.08236
6.40932
6.75325
7.11488
7.49519
7.8949
8.31504
8.75646
9.2202
9.70714
10.2185
10.7552
11.3183
11.9093
12.5299
13.1821
13.868
14.5898
15.3495
16.1489
16.9894
17.8733
18.8019
19.7757
20.7976
21.8687
22.9914
24.1676
25.4001
26.6921
28.0461
29.4673
30.9611
32.5344
34.1975
35.9635
37.854
39.9082
42.1636
44.7845
47.7106
52.0267
56.1879
67.5797
80.0165
115.145
292.539
42.3906
12.4267
44.8484
26.7194
9.25969
1.06834
0.0835476
0.845299
1.28889
1.43877
1.60242
1.65735
1.46527
1.06609
0.61379
0.27441
0.130344
0.153667
0.267881
0.423019
0.611113
0.827953
1.04514
1.22464
1.34825
1.42699
1.48704
1.55071
1.62744
1.71627
1.81287
1.91431
2.02007
2.13088
2.24759
2.37073
2.50064
2.63759
2.78194
2.93405
3.09436
3.26327
3.44125
3.62876
3.82628
4.03435
4.25347
4.48419
4.72716
4.98292
5.25215
5.5355
5.83365
6.14733
6.47728
6.82433
7.18924
7.57284
7.97604
8.39968
8.84479
9.31224
9.80314
10.3184
10.8592
11.4271
12.0235
12.6507
13.3106
14.0051
14.7362
15.5052
16.3141
17.1643
18.0568
18.9932
19.9756
21.0051
22.0843
23.215
24.4002
25.6423
26.9453
28.3127
29.7507
31.2649
32.8664
34.5692
36.3946
38.3806
40.5687
43.1152
45.9956
50.2606
54.4427
66.6911
78.8216
120.954
348.762
42.6609
5.51945
3.37908
6.65109
4.01168
1.08898
0.482397
1.2012
1.83472
2.05491
1.97768
1.69333
1.25657
0.755532
0.325208
0.081275
0.0101455
0.045329
0.140062
0.279411
0.466926
0.696259
0.934656
1.13869
1.28316
1.3733
1.43423
1.49193
1.56086
1.64327
1.73528
1.83298
1.93481
2.04115
2.15289
2.27075
2.39511
2.52626
2.6645
2.81018
2.9637
3.12547
3.29592
3.47551
3.66468
3.86396
4.07384
4.29483
4.52756
4.77256
5.03045
5.30188
5.58753
5.88807
6.20421
6.53674
6.8864
7.25401
7.64045
8.0465
8.47314
8.92124
9.39182
9.88594
10.4046
10.9496
11.5224
12.125
12.7593
13.4269
14.1296
14.8686
15.6456
16.4618
17.3186
18.2177
19.1607
20.1493
21.1861
22.2718
23.4108
24.604
25.857
27.1723
28.5562
30.0138
31.5568
33.1984
34.9613
36.8822
39.0073
41.4815
44.3319
48.4869
52.8664
65.5502
77.9245
127.985
442.25
42.8094
1.26508
0.682935
0.484877
0.542596
0.745085
1.44019
2.1569
2.46644
2.35753
1.97392
1.44119
0.873585
0.393158
0.0927966
0.000524506
0.00880509
0.0427801
0.104099
0.214872
0.386021
0.606562
0.842903
1.05346
1.21054
1.31242
1.37841
1.43378
1.49635
1.5721
1.65887
1.75244
1.85036
1.95237
2.05929
2.17194
2.29082
2.41623
2.54843
2.68776
2.83458
2.98929
3.1523
3.32405
3.50498
3.69558
3.89632
4.1077
4.33031
4.56467
4.81137
5.07104
5.34431
5.63184
5.9343
6.25249
6.58708
6.93885
7.30866
7.69733
8.1057
8.53462
8.98525
9.45835
9.95538
10.4777
11.0272
11.6055
12.2143
12.8552
13.5294
14.2387
14.984
15.7668
16.5887
17.4511
18.3557
19.3043
20.2991
21.342
22.4352
23.5824
24.7866
26.051
27.3824
28.7862
30.2736
31.8586
33.5627
35.4234
37.4892
39.8899
42.7205
46.7065
51.4905
63.6601
78.0468
133.461
580.806
42.9223
3.227
0.181342
0.00340865
0.29622
1.2977
2.44307
3.00356
2.91657
2.43819
1.77944
1.07969
0.484801
0.126776
0.0225398
0.0604964
0.117347
0.141822
0.157554
0.216019
0.347744
0.543839
0.767202
0.974958
1.13757
1.24808
1.31973
1.37497
1.43291
1.50254
1.58384
1.67298
1.76688
1.86465
1.96688
2.07442
2.1879
2.30763
2.43388
2.56694
2.70716
2.85491
3.01059
3.17462
3.34742
3.52946
3.72119
3.92309
4.13573
4.35959
4.59527
4.84333
5.10441
5.37913
5.66813
5.97215
6.29186
6.62806
6.98149
7.35297
7.74335
8.15343
8.58432
9.03688
9.51255
10.0128
10.5394
11.0937
11.6773
12.2918
12.9381
13.6178
14.3322
15.0825
15.8701
16.6969
17.5642
18.4738
19.4283
20.4293
21.4791
22.5815
23.7388
24.9554
26.2373
27.59
29.0251
30.5561
32.205
34.0083
36.0192
38.3524
41.1589
44.9542
50.2326
60.7996
79.7744
131.277
669.579
43.0137
0.76378
0.0533607
0.0311429
0.374376
1.59067
2.79038
3.23273
3.00154
2.42869
1.73003
1.03516
0.487309
0.211769
0.20259
0.313826
0.385348
0.356297
0.274485
0.231576
0.292297
0.457884
0.679221
0.89633
1.06925
1.18713
1.26203
1.31623
1.36995
1.43409
1.51015
1.59482
1.68465
1.77823
1.87588
1.97844
2.08661
2.20077
2.32117
2.44807
2.5818
2.72272
2.8712
3.02765
3.19248
3.36611
3.549
3.74162
3.94446
4.15804
4.3829
4.61958
4.86871
5.13085
5.40665
5.69685
6.002
6.32293
6.66036
7.01502
7.38778
7.77944
8.19101
8.62363
9.07855
9.55736
10.0614
10.5924
11.1514
11.7398
12.359
13.0098
13.6939
14.4126
15.1672
15.9596
16.791
17.6636
18.5794
19.5403
20.5488
21.6081
22.7215
23.8922
25.1272
26.4324
27.8186
29.3002
30.8983
32.6488
34.6073
36.8772
39.6486
43.28
48.9082
57.5741
82.276
113.813
628.915
43.0861
2.53397
0.256497
0.00271443
0.20048
1.00182
1.9663
2.52935
2.61236
2.37848
1.97321
1.49064
1.03142
0.721526
0.629711
0.682038
0.717733
0.630443
0.442941
0.266285
0.213191
0.323175
0.546689
0.794163
0.996602
1.1308
1.20972
1.26088
1.30885
1.36702
1.43791
1.51823
1.60411
1.69365
1.78687
1.8846
1.9876
2.09632
2.21101
2.33191
2.45933
2.5936
2.73508
2.88415
3.04123
3.20668
3.38099
3.56457
3.75789
3.96149
4.17583
4.40148
4.639
4.88896
5.152
5.42874
5.71981
6.02597
6.34788
6.68632
7.04205
7.41597
7.80901
8.22241
8.65735
9.11545
9.5979
10.1061
10.6414
11.2046
11.7974
12.4207
13.0759
13.7642
14.4874
15.2471
16.0443
16.8816
17.7606
18.6834
19.653
20.6718
21.7433
22.8718
24.0632
25.3238
26.6646
28.0998
29.651
31.3534
33.2622
35.4761
38.1977
41.7193
47.4159
54.8802
82.6457
88.5691
578.583
43.1446
0.469234
0.26887
0.17029
0.0755833
0.0705915
0.293115
0.852195
1.52051
1.95973
2.05873
1.89032
1.58615
1.29233
1.11834
1.06524
1.0303
0.904674
0.665677
0.392823
0.21071
0.211238
0.389211
0.652618
0.896679
1.06555
1.16027
1.21198
1.25336
1.30382
1.36844
1.44413
1.52625
1.61207
1.70119
1.79434
1.8924
1.99588
2.1051
2.22027
2.34165
2.46956
2.60435
2.74639
2.89604
3.05372
3.21983
3.3948
3.57907
3.77315
3.97749
4.19264
4.41915
4.65753
4.90844
5.17244
5.45017
5.74233
6.0496
6.37268
6.7124
7.06954
7.44517
7.84055
8.25676
8.69536
9.15741
9.64417
10.1569
10.6967
11.2646
11.862
12.4902
13.1504
13.844
14.5731
15.3386
16.143
16.9877
17.8757
18.8085
19.7899
20.8231
21.9122
23.0638
24.2839
25.5843
26.9779
28.487
30.1458
32.0094
34.1732
36.8375
40.2808
45.8089
52.9628
79.4195
76.37
525.162
43.165
4.81214
1.52244
1.49254
1.22815
0.852984
0.435271
0.178589
0.402396
0.909872
1.35208
1.56715
1.57962
1.48801
1.38352
1.30678
1.23778
1.12212
0.918639
0.645465
0.38538
0.24802
0.299053
0.504894
0.760712
0.971172
1.10092
1.16748
1.20746
1.24957
1.3058
1.37553
1.4537
1.53628
1.62191
1.71104
1.80459
1.90326
2.00743
2.11733
2.2332
2.3553
2.48398
2.61959
2.76249
2.91306
3.0717
3.23883
3.41486
3.6003
3.79555
4.00119
4.21769
4.44561
4.68553
4.93802
5.20371
5.48325
5.77732
6.08661
6.41194
6.75409
7.11421
7.4934
7.89284
8.31392
8.75764
9.22526
9.71769
10.2364
10.7821
11.3564
11.9604
12.5955
13.2629
13.9647
14.702
15.4767
16.2914
17.1477
18.0486
18.997
19.9966
21.0522
22.1691
23.3549
24.6209
25.9801
27.454
29.076
30.9001
33.019
35.627
39.0039
44.2899
51.3917
74.7266
71.4432
468.621
42.9097
10.1504
6.86885
10.5716
7.77889
4.06531
1.39648
0.155421
0.0362204
0.173983
0.490558
0.845567
1.09149
1.19855
1.22385
1.2324
1.24229
1.2215
1.12187
0.923202
0.666348
0.440281
0.345332
0.424774
0.628011
0.853568
1.02434
1.12251
1.1732
1.21097
1.258
1.32016
1.39383
1.4737
1.55686
1.643
1.73299
1.82774
1.9278
2.03343
2.14483
2.26225
2.386
2.51642
2.65387
2.79872
2.95135
3.11216
3.28158
3.46005
3.64802
3.84601
4.05446
4.27398
4.50507
4.74831
5.00432
5.27372
5.55717
5.85533
6.16906
6.49913
6.8467
7.21274
7.59853
8.00527
8.43399
8.88594
9.36194
9.86348
10.3913
10.9469
11.5314
12.146
12.7924
13.4718
14.1864
14.9374
15.7279
16.559
17.4348
18.3574
19.331
20.3604
21.4517
22.6118
23.8523
25.1854
26.6333
28.2269
30.0186
32.0983
34.6501
37.9542
42.9928
49.9745
70.1829
69.152
414.562
41.0517
42.3158
349.155
91.5557
5.79047
0.0359879
0.0582148
0.00745984
0.00949492
0.0131105
0.0691585
0.19176
0.368829
0.573675
0.782968
0.976355
1.12781
1.20597
1.18362
1.05163
0.839396
0.611115
0.454618
0.441449
0.573001
0.777089
0.965257
1.09029
1.15709
1.19709
1.23895
1.29538
1.36561
1.44398
1.52623
1.6112
1.6996
1.7925
1.89058
1.99416
2.10344
2.21863
2.34002
2.46795
2.60277
2.74484
2.89453
3.05223
3.21837
3.39336
3.57766
3.77174
3.97607
4.1912
4.41761
4.65591
4.90662
5.1704
5.44784
5.73958
6.04646
6.3692
6.70893
7.06656
7.44337
7.84054
8.25912
8.70045
9.16552
9.65567
10.1717
10.7152
11.287
11.8883
12.5207
13.1853
13.8847
14.6202
15.3945
16.209
17.0671
17.9711
18.9258
19.9361
21.0091
22.1507
23.3729
24.6868
26.115
27.6849
29.4484
31.4905
33.9839
37.2029
42.0009
48.6956
66.3315
67.601
362.846
51.2995
321.999
2045.43
227.896
8.9616
1.31262
0.00695262
0.00113056
1.21824e-05
0.00178829
0.00278068
0.0118723
0.0644374
0.208429
0.455685
0.752858
1.01221
1.16382
1.17823
1.06465
0.869771
0.661155
0.522562
0.517394
0.642314
0.828861
0.997749
1.10944
1.17129
1.2127
1.25869
1.31904
1.39181
1.47159
1.55486
1.64099
1.73086
1.82546
1.92536
2.03083
2.14206
2.2593
2.38283
2.51301
2.65018
2.79472
2.94698
3.10738
3.27632
3.45424
3.64157
3.8388
4.04642
4.26491
4.49482
4.73671
4.9911
5.25864
5.53989
5.83551
6.14623
6.47279
6.81625
7.17751
7.55784
7.95825
8.37988
8.82387
9.29124
9.78301
10.2999
10.8435
11.4142
12.0132
12.6415
13.3003
13.9916
14.7161
15.4764
16.273
17.1089
17.9868
18.9144
19.8996
20.9485
22.0671
23.2638
24.5521
25.9522
27.4927
29.2214
31.2189
33.644
36.7539
41.2968
47.6222
63.1537
66.466
313.639
71.6699
958.622
12068.8
569.25
41.1793
3.47349
0.286087
0.00224961
0.00109928
0.00909672
0.000704616
0.0138358
0.124364
0.361393
0.667975
0.948368
1.12901
1.17811
1.09904
0.930107
0.733875
0.583635
0.54206
0.623234
0.781857
0.948135
1.07422
1.15254
1.20284
1.24923
1.30572
1.37458
1.45211
1.53445
1.62001
1.7091
1.8026
1.90123
2.00536
2.11522
2.23103
2.35308
2.4817
2.61724
2.76006
2.91054
3.06907
3.23607
3.41194
3.59718
3.79218
3.99751
4.21362
4.44104
4.68037
4.93212
5.19691
5.47533
5.76804
6.07568
6.39891
6.73861
7.09571
7.47114
7.86623
8.28183
8.71921
9.17924
9.66285
10.1709
10.7041
11.2636
11.8501
12.4644
13.1074
13.7799
14.4834
15.2179
15.9855
16.7862
17.6224
18.4964
19.4147
20.3837
21.4075
22.491
23.6385
24.8654
26.1976
27.6732
29.337
31.2629
33.5947
36.5755
40.8456
46.8402
60.6025
66.2693
274.999
43.5367
45.0421
200.034
75.3664
20.2762
2.49081
0.0289855
0.0254369
0.0627545
0.251529
0.501985
0.688966
0.813951
0.939977
1.07942
1.18427
1.19753
1.09386
0.898503
0.684275
0.53472
0.508628
0.605944
0.771533
0.937196
1.0619
1.14173
1.1952
1.24371
1.30022
1.3678
1.44398
1.5255
1.61067
1.69945
1.79256
1.89068
1.99424
2.1035
2.2187
2.34012
2.46809
2.60294
2.74505
2.8948
3.05256
3.21876
3.39383
3.57821
3.77235
3.97678
4.19198
4.4185
4.65687
4.90768
5.17151
5.44898
5.74071
6.04741
6.36972
6.70834
7.0641
7.43787
7.83065
8.24378
8.6782
9.13516
9.61563
10.1206
10.651
11.2076
11.7913
12.4031
13.0435
13.7139
14.4145
15.147
15.9118
16.7099
17.5423
18.4106
19.316
20.2611
21.2478
22.2793
23.358
24.4874
25.679
26.9592
28.3635
29.9384
31.7581
33.9649
36.8103
40.8524
46.6514
59.0524
66.5639
248.657
42.4927
5.76933
26.1869
8.65654
4.58532
1.50292
0.165766
0.172086
0.687886
1.18715
1.42761
1.44057
1.37164
1.32618
1.31139
1.26447
1.12208
0.878911
0.60961
0.424312
0.401071
0.53268
0.738486
0.930175
1.06355
1.14218
1.19235
1.23886
1.29468
1.36199
1.43786
1.51902
1.60385
1.69234
1.78513
1.88289
1.98605
2.09489
2.20966
2.33064
2.45814
2.59251
2.73412
2.88334
3.04057
3.20622
3.38072
3.56451
3.75808
3.96187
4.17647
4.40235
4.64009
4.89027
5.15345
5.43031
5.72145
6.02755
6.34928
6.68737
7.04253
7.41553
7.80735
8.21879
8.65132
9.10595
9.58401
10.0867
10.615
11.1699
11.7524
12.3632
13.0034
13.6738
14.3751
15.1084
15.8745
16.6745
17.509
18.3789
19.2856
20.2298
21.2125
22.2359
23.3014
24.4131
25.5745
26.7955
28.0944
29.4947
31.0409
32.8063
34.9314
37.6713
41.5161
47.1701
58.3928
66.915
229.692
42.9441
3.40077
5.03807
1.18831
0.180816
0.385594
0.827767
1.49604
2.03584
2.17906
1.97541
1.63764
1.37323
1.2656
1.237
1.14421
0.912771
0.597511
0.341986
0.27289
0.408941
0.656138
0.894372
1.0578
1.1469
1.19552
1.23698
1.28896
1.35462
1.43018
1.51139
1.59615
1.68436
1.77675
1.87407
1.97677
2.08515
2.19944
2.31992
2.44691
2.58074
2.72179
2.87043
3.02706
3.19207
3.36593
3.54905
3.74192
3.94504
4.15889
4.38404
4.62103
4.87043
5.13286
5.40893
5.69929
6.00463
6.32558
6.66295
7.01741
7.38971
7.78068
8.19116
8.62205
9.07474
9.55029
10.0502
10.5758
11.1282
11.7084
12.3175
12.9564
13.626
14.3271
15.0604
15.8275
16.6283
17.4646
18.3364
19.2452
20.1913
21.1764
22.2005
23.2665
24.3748
25.5308
26.737
28.0035
29.3441
30.7804
32.3546
34.1364
36.2545
38.949
42.6275
48.1042
58.2205
67.2965
214.702
42.8867
6.94098
6.18845
3.63942
1.57294
2.34678
3.04708
3.03183
2.6762
2.17327
1.61986
1.15334
0.913256
0.899084
0.941563
0.860512
0.618537
0.338635
0.195147
0.277957
0.528865
0.811253
1.0233
1.14282
1.20101
1.23947
1.28512
1.34629
1.42013
1.5012
1.58612
1.67421
1.76618
1.86292
1.96502
2.0728
2.18648
2.30633
2.43265
2.56579
2.70611
2.854
3.00984
3.17404
3.34704
3.52929
3.72125
3.92342
4.1363
4.36045
4.5964
4.84476
5.1061
5.38107
5.67033
5.97449
6.29435
6.63051
6.98379
7.35499
7.74482
8.15409
8.58368
9.03454
9.50774
10.0047
10.5268
11.0757
11.6523
12.2583
12.8943
13.5616
14.2607
14.993
15.7588
16.5596
17.3957
18.2683
19.178
20.1265
21.1128
22.1398
23.2068
24.3172
25.4708
26.6734
27.9276
29.2426
30.6309
32.1152
33.7349
35.5573
37.6982
40.3857
43.9412
49.2718
58.4467
67.8362
201.862
42.4384
17.2053
43.7355
16.611
2.11625
2.27395
3.95489
3.70004
2.75302
1.76663
0.94773
0.457564
0.342287
0.450188
0.547725
0.495662
0.320558
0.167157
0.1784
0.380756
0.676012
0.940458
1.11228
1.20023
1.2455
1.2856
1.33919
1.40846
1.48815
1.57317
1.66139
1.75304
1.84912
1.95045
2.05744
2.17035
2.2894
2.41488
2.54714
2.68655
2.83347
2.98831
3.15147
3.32338
3.50449
3.69527
3.89622
4.10785
4.33066
4.56527
4.8122
5.0721
5.34558
5.63329
5.9359
6.25413
6.58866
6.94031
7.30982
7.69791
8.10548
8.53333
8.98235
9.4535
9.94768
10.4664
11.011
11.5832
12.1843
12.816
13.479
14.1747
14.9038
15.6672
16.4659
17.3006
18.1723
19.0818
20.0299
21.0176
22.0449
23.1141
24.2255
25.3802
26.5809
27.8305
29.1333
30.4977
31.9363
33.472
35.1416
37.01
39.1803
41.8802
45.3463
50.5788
58.9674
68.6075
191.56
40.6048
97.1774
255.946
50.7951
4.94682
0.263776
3.18955
3.63653
2.7961
1.74548
0.810143
0.218593
0.0386727
0.103282
0.188276
0.178668
0.108649
0.0962552
0.231511
0.497532
0.795311
1.03191
1.17551
1.24828
1.29134
1.33671
1.39758
1.47301
1.55711
1.64558
1.7372
1.83271
1.93314
2.03916
2.15109
2.26917
2.39364
2.52484
2.66313
2.80889
2.9625
3.12439
3.29497
3.47469
3.66402
3.86346
4.07351
4.29471
4.5276
4.77279
5.03086
5.30245
5.58821
5.88879
6.20496
6.5374
6.88684
7.2541
7.63998
8.0452
8.47079
8.91738
9.38605
9.87765
10.3931
10.9338
11.5012
12.097
12.7227
13.3802
14.0703
14.7945
15.5535
16.3484
17.1799
18.0489
18.9563
19.903
20.8896
21.9173
22.9863
24.0981
25.2534
26.4535
27.7012
28.9982
30.3504
31.7648
33.2535
34.8415
36.5604
38.4769
40.6819
43.4016
46.8058
51.9619
59.6987
69.3801
182.118
26.528
461.148
1508.93
135.233
14.9051
4.85657
1.38131
2.67214
2.75678
2.0764
1.23408
0.521274
0.108673
0.00695505
0.0160986
0.0184634
0.0255368
0.108649
0.311194
0.598241
0.884509
1.10039
1.22875
1.29568
1.34042
1.39129
1.45826
1.5387
1.62663
1.71847
1.8137
1.91327
2.01817
2.12894
2.24586
2.36915
2.49912
2.63611
2.7805
2.93269
3.09308
3.26209
3.44018
3.62781
3.82547
4.03366
4.25292
4.4838
4.7269
4.98278
5.2521
5.53554
5.83371
6.14735
6.4772
6.82399
7.18848
7.57151
7.97395
8.39647
8.84018
9.30581
9.79428
10.3065
10.8436
11.4065
11.9969
12.6166
13.2669
13.9502
14.6673
15.42
16.2091
17.0353
17.8998
18.8031
19.7466
20.7305
21.7559
22.8234
23.9341
25.0889
26.2886
27.535
28.8295
30.1758
31.576
33.0418
34.582
36.2218
37.991
39.9562
42.1965
44.942
48.2993
53.3871
60.5764
70.3069
173.717
330.435
2008.63
8923.05
350.139
31.0869
20.6234
2.48239
0.49458
2.08493
2.2513
1.69053
0.983369
0.393878
0.0729387
0.0020105
0.00349032
0.0591498
0.195245
0.419865
0.698518
0.96403
1.16129
1.27884
1.34301
1.39084
1.44751
1.52026
1.60524
1.69675
1.79197
1.89092
1.9947
2.10415
2.21972
2.34167
2.47023
2.60575
2.74859
2.89916
3.05784
3.22508
3.40131
3.587
3.78262
3.98869
4.20574
4.4343
4.67499
4.92836
5.1951
5.47577
5.77117
6.08188
6.40868
6.75237
7.11362
7.49336
7.8923
8.31138
8.75147
9.21339
9.69812
10.2066
10.7396
11.2985
11.884
12.4977
13.1413
13.8165
14.5255
15.2698
16.0508
16.8697
17.7274
18.6249
19.5626
20.542
21.5634
22.6279
23.7355
24.8881
26.0865
27.3306
28.6229
29.9645
31.36
32.8099
34.3267
35.9185
37.6097
39.4314
41.446
43.7253
46.4993
49.8185
54.8537
61.5834
71.2828
166.07
893.424
7571.57
52653.3
1372.96
759.504
86.2153
6.2338
0.667106
1.11787
1.95688
1.8434
1.3138
0.717218
0.269734
0.0764293
0.0690178
0.170094
0.338958
0.562241
0.815174
1.04905
1.22166
1.32633
1.38843
1.44103
1.50464
1.58339
1.67265
1.76747
1.86604
1.96884
2.07691
2.19099
2.3114
2.4384
2.57229
2.71342
2.86219
3.01899
3.18425
3.3584
3.54192
3.73527
3.93897
4.15354
4.37952
4.6175
4.86808
5.13183
5.40949
5.70166
6.00909
6.33246
6.6726
7.03018
7.40609
7.80112
8.21613
8.65206
9.10969
9.59005
10.094
10.6226
11.1767
11.7574
12.3658
13.0028
13.6707
14.3708
15.1056
15.8771
16.6863
17.5351
18.4242
19.3546
20.3267
21.3418
22.4008
23.5042
24.6527
25.8467
27.0884
28.3778
29.716
31.1055
32.549
34.0499
35.6167
37.2625
39.0071
40.8804
42.9455
45.2659
48.071
51.3635
56.3547
62.7143
72.3981
158.777
1576.69
18779.9
8.30421e+06
59799
4904.18
100.928
10.9092
0.437225
0.224534
1.17458
1.67192
1.48421
1.01468
0.543107
0.255208
0.201016
0.311925
0.502165
0.723791
0.947596
1.14134
1.28143
1.37017
1.4314
1.49108
1.56291
1.64767
1.74076
1.83865
1.9406
2.04736
2.15984
2.27857
2.40385
2.53596
2.67522
2.82201
2.97675
3.13984
3.31173
3.49287
3.68373
3.88482
4.09666
4.3198
4.55479
4.80226
5.06279
5.33705
5.62572
5.92947
6.24906
6.58517
6.93866
7.31029
7.70093
8.11141
8.54263
8.99544
9.47083
9.96968
10.493
11.0418
11.6171
12.2197
12.8509
13.5117
14.204
14.9291
15.6898
16.4881
17.3255
18.2042
19.1244
20.0875
21.094
22.1452
23.2416
24.384
25.5732
26.8089
28.0939
29.4283
30.8127
32.2505
33.7418
35.2938
36.9122
38.6095
40.4074
42.3345
44.4527
46.8157
49.6567
52.9339
57.8891
63.9614
73.6319
153.965
108.814
395.668
65468.5
1538.48
789.443
102.296
9.85253
0.859207
0.0601413
0.907202
1.52137
1.57796
1.25676
0.795914
0.440185
0.329453
0.438791
0.655646
0.885426
1.08262
1.23256
1.337
1.41048
1.47359
1.54238
1.62272
1.71284
1.80923
1.91008
2.01554
2.1264
2.24335
2.36676
2.49693
2.63417
2.77885
2.93135
3.0921
3.26153
3.44009
3.62826
3.82653
4.03542
4.25545
4.48723
4.73131
4.9883
5.25888
5.54368
5.84343
6.15883
6.49064
6.8396
7.20657
7.59232
7.99778
8.42375
8.87117
9.341
9.8342
10.3517
10.8945
11.4635
12.0599
12.6847
13.3387
14.0236
14.7401
15.4908
16.2772
17.1024
17.968
18.8758
19.8273
20.8231
21.8636
22.9505
24.0842
25.2652
26.4951
27.7738
29.1014
30.4814
31.9111
33.3962
34.9365
36.5386
38.2085
39.9604
41.8127
43.794
45.9629
48.3723
51.2517
54.5246
59.4604
65.2953
74.9623
149.9
95.0982
885.69
10176.8
179.022
130.04
38.8014
1.32211
0.209422
0.391433
1.12107
1.59639
1.65397
1.36918
0.924315
0.547806
0.417535
0.543309
0.793497
1.03266
1.20333
1.31177
1.38563
1.44941
1.51779
1.59619
1.68394
1.77837
1.87768
1.98162
2.09079
2.20588
2.32731
2.45541
2.59048
2.73288
2.883
3.04125
3.20805
3.38387
3.56914
3.76438
3.97008
4.18681
4.4151
4.65553
4.90874
5.17534
5.45599
5.75141
6.0623
6.38938
6.73345
7.09534
7.4758
7.87574
8.29606
8.7376
9.20135
9.68825
10.1992
10.7354
11.2976
11.8871
12.5047
13.1516
13.8286
14.5373
15.2784
16.0544
16.8666
17.7187
18.6121
19.5493
20.5311
21.5592
22.6339
23.7561
24.9271
26.1474
27.4174
28.7387
30.1096
31.5343
33.0101
34.5426
36.1323
37.7839
39.5068
41.3109
43.2166
45.254
47.4785
49.9348
52.8573
56.1374
61.0614
66.7046
76.3528
145.442
42.1109
167.912
1841.48
143.376
20.6797
6.9307
0.140133
0.703119
1.6654
1.82467
1.71722
1.53976
1.2668
0.910318
0.596095
0.498107
0.651769
0.921815
1.15545
1.29701
1.37282
1.42806
1.49015
1.56602
1.65269
1.74594
1.84372
1.94591
2.0532
2.16629
2.28565
2.41156
2.54435
2.68434
2.83193
2.98751
3.15152
3.32441
3.50661
3.69862
3.90096
4.11414
4.33872
4.57529
4.82443
5.0868
5.36302
5.6538
5.95984
6.28192
6.62071
6.97712
7.3519
7.74596
8.16013
8.59525
9.05242
9.53245
10.0365
10.5653
11.1201
11.7019
12.3116
12.9505
13.6194
14.3197
15.052
15.8179
16.6192
17.4574
18.336
19.257
20.2232
21.2355
22.2958
23.4044
24.5613
25.7689
27.0274
28.3382
29.7014
31.1159
32.5855
34.1077
35.6864
37.3251
39.0277
40.802
42.6597
44.621
46.7135
48.9928
51.4991
54.4688
57.7643
62.6869
68.1684
77.7995
142.224
39.0506
46.1032
309.37
59.3488
2.29447
1.44899
3.10321
3.01361
2.58456
1.97376
1.45101
1.16437
1.01241
0.832971
0.646682
0.612329
0.784175
1.04302
1.24886
1.36074
1.4174
1.4679
1.53501
1.61847
1.71099
1.80796
1.9086
2.0139
2.12484
2.24196
2.36558
2.49596
2.63342
2.77834
2.93113