/*--------------------------------*- C++ -*----------------------------------*\
  =========                 |
  \\      /  F ield         | OpenFOAM: The Open Source CFD Toolbox
   \\    /   O peration     | Website:  https://openfoam.org
    \\  /    A nd           | Version:  9
     \\/     M anipulation  |
\*---------------------------------------------------------------------------*/
FoamFile
{
    format      ascii;
    class       volScalarField;
    location    "3000";
    object      p;
}
// * * * * * * * * * * * * * * * * * * * * * * * * * * * * * * * * * * * * * //

dimensions      [0 2 -2 0 0 0 0];

internalField   nonuniform List<scalar> 
13446
(
0.000891265
0.000914633
0.000907944
0.000937454
0.000931292
0.000930301
0.000932656
0.000936491
0.000959712
0.000954068
0.000953437
0.000956226
0.000960626
0.000967076
0.000981399
0.000976263
0.000975991
0.000979202
0.000984152
0.000991224
0.00100073
0.00100251
0.000997866
0.000997953
0.00100157
0.00100705
0.00101473
0.00102492
0.0010376
0.0010528
0.00107065
0.00109124
0.00111472
0.00114121
0.00117087
0.00120389
0.00124046
0.00128078
0.00132509
0.00137364
0.0014267
0.00148455
0.00154752
0.00161595
0.0016902
0.00177067
0.00185779
0.001952
0.00205381
0.00216375
0.00228241
0.00241038
0.00102302
0.00101887
0.00101931
0.00102333
0.00102932
0.00103758
0.00104842
0.00106185
0.00107789
0.00109667
0.00111831
0.00114294
0.00117071
0.00120178
0.00123635
0.00127461
0.00131678
0.00136312
0.00141389
0.00146937
0.00152987
0.00159573
0.0016673
0.00174499
0.00182921
0.00192041
0.00201909
0.00212578
0.00224103
0.00236548
0.00249979
0.00264468
0.00280093
0.0448001
0.0476148
0.0505129
0.0534737
0.0564682
0.0594559
0.0623842
0.0651777
0.0677433
0.0699441
0.071606
0.0724902
0.0723148
0.0705916
0.0669542
0.060409
0.050863
0.0359274
0.0176907
-0.0104795
-0.0379147
-0.0838975
-0.113924
-0.1769
-0.196968
-0.261411
0.00104294
0.00103926
0.00104005
0.00104446
0.00105095
0.00105976
0.00107124
0.00108538
0.00110224
0.00112192
0.00114456
0.0011703
0.00119929
0.00123171
0.00126776
0.00130765
0.00135161
0.0013999
0.0014528
0.00151061
0.00157366
0.00164229
0.0017169
0.0017979
0.00188573
0.00198088
0.00208386
0.00219523
0.00231561
0.00244566
0.00258607
0.00273762
0.00290114
0.00307753
0.0441337
0.0470181
0.0500186
0.0531246
0.0563182
0.0595745
0.0628587
0.0661231
0.0693014
0.0723066
0.0750118
0.0772549
0.0788046
0.0793839
0.0785229
0.0758358
0.0703162
0.0617777
0.0478175
0.0302191
0.0022861
-0.0256994
-0.0734878
-0.105579
-0.173679
-0.195346
-0.265647
0.00106226
0.00105903
0.00106017
0.00106495
0.00107192
0.00108127
0.00109336
0.00110819
0.00112582
0.00114636
0.00116996
0.00119677
0.00122694
0.00126065
0.00129813
0.00133957
0.00138525
0.00143541
0.00149036
0.00155041
0.0016159
0.00168721
0.00176473
0.00184891
0.00194021
0.00203914
0.00214626
0.00226215
0.00238746
0.00252288
0.00266916
0.00282712
0.00299763
0.00318166
0.00338023
0.00359446
0.043209
0.0461163
0.049164
0.0523466
0.0556556
0.0590772
0.0625903
0.0661652
0.069762
0.07332
0.076762
0.0799717
0.0827998
0.0850281
0.0863836
0.0864156
0.0847301
0.0803303
0.0729318
0.0601374
0.0434249
0.0159912
-0.0122553
-0.0617375
-0.0958375
-0.169434
-0.193107
-0.270134
0.00108096
0.00107817
0.00107966
0.0010848
0.00109222
0.0011021
0.00111477
0.00113026
0.00114863
0.00117
0.00119452
0.00122235
0.00125364
0.0012886
0.00132743
0.00137037
0.00141769
0.00146964
0.00152655
0.00158874
0.00165658
0.00173044
0.00181076
0.00189798
0.00199261
0.00209518
0.00220626
0.00232649
0.00245652
0.00259711
0.00274903
0.00291314
0.00309036
0.00328171
0.00348827
0.00371121
0.00395182
0.0278247
0.0298531
0.0320141
0.0343129
0.0367549
0.0393444
0.0420853
0.0449806
0.0480318
0.0512385
0.0545979
0.0581047
0.0617484
0.0655134
0.0693751
0.0732978
0.0772304
0.0811036
0.0848155
0.0882283
0.0911375
0.0932885
0.0942492
0.0936157
0.0904243
0.0842965
0.0728311
0.0572549
0.0306249
0.00242719
-0.0484677
-0.084506
-0.16415
-0.190091
-0.275079
0.00109904
0.00109668
0.0010985
0.00110399
0.00111185
0.00112224
0.00113546
0.00115159
0.00117067
0.00119283
0.00121823
0.00124702
0.00127939
0.00131553
0.00135566
0.00140003
0.00144891
0.00150258
0.00156136
0.0016256
0.00169567
0.00177198
0.00185496
0.00194511
0.00204292
0.00214896
0.00226384
0.00238821
0.00252278
0.00266831
0.00282562
0.00299563
0.00317928
0.00337765
0.00359186
0.00382314
0.00407283
0.00434237
0.00463333
0.0268716
0.0288433
0.0309475
0.0331903
0.0355781
0.0381165
0.0408111
0.0436675
0.046689
0.0498796
0.0532409
0.0567729
0.0604728
0.0643335
0.0683431
0.0724839
0.0767262
0.0810277
0.0853286
0.0895368
0.0935305
0.0971223
0.100076
0.101988
0.102451
0.10053
0.0958029
0.0858535
0.071655
0.0461482
0.0183942
-0.0335207
-0.0713283
-0.15733
-0.186002
-0.281143
0.00111651
0.00111455
0.0011167
0.00112253
0.00113081
0.00114167
0.00115543
0.00117216
0.00119191
0.00121483
0.00124107
0.00127079
0.00130418
0.00134144
0.00138281
0.00142854
0.00147891
0.00153421
0.00159478
0.00166096
0.00173317
0.0018118
0.00189734
0.00199026
0.00209111
0.00220047
0.00231897
0.0024473
0.00258619
0.00273644
0.00289891
0.00307454
0.00326434
0.00346941
0.00369094
0.0039302
0.00418857
0.00446757
0.00476881
0.00509403
0.00544515
0.0180656
0.0194168
0.0208671
0.0224224
0.0240889
0.0258732
0.0277819
0.0298214
0.0319989
0.0343211
0.0367946
0.0394265
0.0422231
0.0451906
0.048335
0.051661
0.0551727
0.0588719
0.062759
0.0668307
0.0710799
0.0754934
0.080048
0.08471
0.0894285
0.0941282
0.0986989
0.102973
0.106733
0.109607
0.111202
0.110618
0.107393
0.0991424
0.0865797
0.0626129
0.0356976
-0.0168889
-0.0560882
-0.148691
-0.180324
-0.289657
0.00113334
0.00113178
0.00113425
0.00114039
0.00114907
0.0011604
0.00117466
0.00119197
0.00121237
0.001236
0.00126303
0.00129363
0.00132799
0.00136633
0.00140887
0.00145589
0.00150767
0.00156452
0.00162678
0.00169483
0.00176905
0.0018499
0.00193785
0.00203342
0.00213716
0.00224967
0.00237162
0.00250372
0.00264672
0.00280147
0.00296885
0.00314985
0.00334551
0.00355697
0.00378546
0.00403232
0.00429898
0.00458701
0.00489805
0.00523395
0.00559665
0.00598826
0.00641104
0.00686744
0.00736007
0.0186302
0.0200243
0.0215205
0.023125
0.0248443
0.0266852
0.0286546
0.0307599
0.033008
0.0354066
0.0379632
0.0406854
0.0435806
0.0466565
0.0499194
0.0533768
0.0570338
0.0608954
0.0649646
0.0692419
0.0737234
0.0784017
0.0832613
0.0882758
0.0934048
0.098585
0.103723
0.108674
0.113243
0.117089
0.119838
0.120647
0.119016
0.112623
0.101976
0.0798829
0.0543238
0.00163684
-0.0385338
-0.137995
-0.172401
-0.299476
0.00114954
0.00114836
0.00115114
0.00115759
0.00116665
0.00117841
0.00119316
0.00121101
0.00123202
0.00125633
0.00128412
0.00131555
0.00135083
0.00139018
0.00143384
0.00148208
0.00153519
0.00159351
0.00165737
0.00172717
0.00180332
0.00188626
0.0019765
0.00207457
0.00218105
0.00229656
0.00242178
0.00255744
0.00270435
0.00286337
0.00303542
0.00322151
0.00342273
0.00364027
0.0038754
0.00412948
0.00440403
0.00470063
0.00502102
0.00536708
0.00574082
0.00614439
0.00658015
0.00705058
0.0075584
0.00810646
0.00869786
0.0191695
0.0206048
0.022145
0.0237968
0.0255669
0.0274623
0.0294905
0.0316589
0.0339751
0.0364477
0.0390846
0.041894
0.0448846
0.0480647
0.0514431
0.0550274
0.0588256
0.062845
0.0670904
0.0715661
0.0762736
0.0812105
0.0863665
0.0917241
0.0972535
0.102905
0.108601
0.114219
0.119587
0.124406
0.128325
0.130565
0.130621
0.126236
0.117746
0.0979225
0.0742267
0.0220879
-0.0184652
-0.12453
-0.161633
-0.308148
0.0011651
0.00116429
0.00116736
0.0011741
0.00118353
0.0011957
0.00121091
0.00122928
0.00125087
0.00127582
0.00130432
0.00133654
0.00137268
0.00141298
0.00145769
0.00150709
0.00156146
0.00162116
0.00168654
0.00175799
0.00183594
0.00192087
0.00201327
0.00211371
0.00222277
0.0023411
0.00246941
0.00260845
0.00275906
0.00292211
0.00309857
0.00328949
0.00349599
0.00371928
0.00396069
0.00422164
0.00450366
0.00480841
0.00513767
0.00549338
0.00587759
0.00629253
0.00674063
0.00722443
0.00774669
0.00831038
0.00891864
0.00957483
0.0102826
0.0110456
0.0118681
0.0127543
0.0137088
0.0147364
0.0158422
0.0170315
0.01831
0.0196836
0.0211584
0.0227411
0.0244382
0.0262571
0.0282051
0.0302896
0.0325188
0.034901
0.0374449
0.0401592
0.0430529
0.0461357
0.0494173
0.0529067
0.0566141
0.060549
0.0647204
0.0691369
0.073806
0.0787327
0.0839188
0.089363
0.0950551
0.100974
0.107085
0.113328
0.119602
0.125762
0.131545
0.136643
0.140342
0.142148
0.139912
0.133811
0.116662
0.0953504
0.0444969
0.00433661
-0.108212
-0.147482
-0.31512
0.00118003
0.00117955
0.00118291
0.00118993
0.0011997
0.00121227
0.00122792
0.00124676
0.0012689
0.00129446
0.00132362
0.00135658
0.00139354
0.00143474
0.00148044
0.00153091
0.00158647
0.00164747
0.00171427
0.00178727
0.00186693
0.00195371
0.00204815
0.0021508
0.0022623
0.00238329
0.00251451
0.00265673
0.00281082
0.00297768
0.0031583
0.00335377
0.00356524
0.00379397
0.00404132
0.00430875
0.00459785
0.0049103
0.00524795
0.00561279
0.00600693
0.00643267
0.00689246
0.00738894
0.00792493
0.00850345
0.00912774
0.00980122
0.0105276
0.0113107
0.0121548
0.0130642
0.0140436
0.0150979
0.0162323
0.0174524
0.0187639
0.0201727
0.0216855
0.0233088
0.0250496
0.0269155
0.0289138
0.0310527
0.0333407
0.0357864
0.0383991
0.0411881
0.0441635
0.0473355
0.0507142
0.0543112
0.0581375
0.0622045
0.066524
0.0711063
0.075962
0.0811005
0.0865291
0.0922531
0.0982691
0.104568
0.111126
0.117901
0.124815
0.131753
0.138493
0.144765
0.149931
0.153526
0.153548
0.150064
0.136002
0.117671
0.0689324
0.0300195
-0.0881512
-0.129468
-0.31999
0.00119431
0.00119416
0.00119779
0.00120507
0.00121517
0.0012281
0.00124416
0.00126347
0.00128611
0.00131224
0.00134203
0.00137568
0.00141341
0.00145545
0.00150206
0.00155355
0.00161022
0.00167243
0.00174055
0.00181501
0.00189626
0.00198478
0.00208112
0.00218586
0.00229962
0.00242311
0.00255705
0.00270226
0.00285961
0.00303004
0.00321457
0.00341432
0.00363047
0.00386431
0.00411725
0.00439079
0.00468654
0.00500626
0.00535183
0.00572529
0.00612882
0.00656476
0.00703561
0.00754409
0.00809309
0.00868567
0.00932515
0.0100151
0.0107591
0.0115613
0.0124259
0.0133574
0.0143605
0.0154403
0.0166021
0.0178515
0.0191945
0.0206372
0.0221862
0.0238484
0.0256312
0.027542
0.0295889
0.0317802
0.0341247
0.0366315
0.0393105
0.0421716
0.0452255
0.0484831
0.0519565
0.0556578
0.0595993
0.0637944
0.0682565
0.072999
0.0780355
0.0833798
0.0890435
0.0950371
0.101367
0.108033
0.115026
0.122319
0.129858
0.137555
0.145234
0.15267
0.159311
0.164733
0.1671
0.166398
0.155782
0.141052
0.0954405
0.0587753
-0.0640727
-0.107004
-0.321329
0.00120794
0.0012081
0.00121199
0.00121953
0.00122992
0.00124321
0.00125965
0.00127938
0.0013025
0.00132916
0.00135954
0.00139383
0.00143227
0.00147509
0.00152256
0.00157499
0.00163269
0.00169603
0.00176539
0.0018412
0.00192392
0.00201406
0.00211217
0.00221885
0.00233474
0.00246054
0.00259703
0.00274502
0.00290541
0.00307918
0.00326737
0.00347111
0.00369164
0.00393028
0.00418845
0.00446771
0.00476972
0.00509627
0.00544929
0.00583086
0.00624322
0.00668876
0.00717006
0.00768986
0.00825113
0.00885701
0.00951086
0.0102163
0.0109771
0.0117974
0.0126815
0.013634
0.0146596
0.0157637
0.0169516
0.018229
0.019602
0.0210771
0.0226608
0.0243604
0.0261833
0.0281373
0.0302307
0.0324722
0.0348711
0.0374369
0.0401798
0.0431105
0.0462402
0.0495813
0.0531462
0.056948
0.0610005
0.0653189
0.0699192
0.0748168
0.0800285
0.0855719
0.0914626
0.0977178
0.104351
0.111372
0.118785
0.12658
0.134727
0.143167
0.151764
0.160343
0.168444
0.175702
0.18048
0.182722
0.175924
0.165342
0.123875
0.0907827
-0.035518
-0.0798716
-0.316267
0.00122093
0.00122137
0.00122551
0.00123328
0.00124396
0.00125757
0.00127437
0.0012945
0.00131806
0.00134521
0.00137613
0.00141103
0.00145012
0.00149367
0.00154194
0.00159523
0.00165389
0.00171827
0.00178877
0.00186583
0.00194992
0.00204155
0.0021413
0.00224977
0.00236762
0.00249557
0.00263441
0.00278499
0.00294821
0.00312507
0.00331666
0.00352413
0.00374873
0.00399183
0.0042549
0.0045395
0.00484735
0.00518029
0.00554028
0.00592945
0.0063501
0.00680465
0.00729576
0.00782622
0.00839904
0.00901744
0.00968486
0.010405
0.0111817
0.0120191
0.0129216
0.0138939
0.014941
0.0160682
0.0172809
0.0185849
0.0199867
0.0214926
0.0231096
0.0248449
0.0267063
0.0287017
0.0308398
0.0331296
0.0355808
0.0382032
0.0410077
0.0440054
0.0472083
0.0506297
0.0542827
0.0581814
0.0623413
0.0667796
0.0715134
0.0765609
0.0819417
0.0876765
0.0937874
0.100295
0.107221
0.114586
0.122404
0.130685
0.139419
0.148577
0.158067
0.167766
0.177307
0.186394
0.193616
0.198895
0.196254
0.190409
0.154321
0.126315
-0.00258261
-0.0478845
-0.311712
0.00123326
0.00123398
0.00123835
0.00124634
0.00125728
0.00127119
0.00128832
0.00130882
0.00133279
0.0013604
0.00139182
0.00142727
0.00146697
0.00151118
0.00156017
0.00161427
0.0016738
0.00173914
0.00181069
0.00188889
0.00197423
0.00206725
0.0021685
0.00227861
0.00239826
0.00252819
0.0026692
0.00282215
0.00298798
0.00316771
0.00336243
0.00357334
0.00380172
0.00404895
0.00431655
0.00460612
0.0049194
0.00525828
0.00562477
0.00602104
0.00644942
0.0069124
0.00741268
0.00795312
0.00853679
0.00916697
0.00984714
0.0105811
0.0113727
0.0122262
0.0131462
0.0141374
0.0152048
0.0163538
0.01759
0.0189194
0.0203484
0.0218837
0.0235324
0.0253018
0.0272
0.0292352
0.0314163
0.0337524
0.0362537
0.0389306
0.0417942
0.0448564
0.0481299
0.0516288
0.0553669
0.0593593
0.0636237
0.0681777
0.0730397
0.0782318
0.0837762
0.0896964
0.096019
0.102772
0.109982
0.117678
0.125889
0.134637
0.143937
0.153788
0.164142
0.174925
0.185869
0.196756
0.206428
0.214815
0.216624
0.215946
0.186724
0.165442
0.0344566
-0.00898864
-0.325258
0.00124494
0.00124591
0.0012505
0.00125869
0.00126987
0.00128406
0.0013015
0.00132234
0.00134669
0.00137471
0.00140659
0.00144254
0.0014828
0.00152761
0.00157727
0.0016321
0.00169242
0.00175863
0.00183113
0.00191038
0.00199687
0.00209113
0.00219375
0.00230536
0.00242666
0.0025584
0.00270138
0.0028565
0.00302472
0.00320707
0.00340466
0.00361873
0.00385058
0.00410162
0.00437339
0.00466755
0.00498585
0.00533023
0.00570273
0.00610558
0.00654114
0.00701198
0.00752081
0.00807055
0.00866436
0.00930554
0.00999765
0.0107445
0.0115502
0.012419
0.0133554
0.0143643
0.0154508
0.0166205
0.0178791
0.0192326
0.0206875
0.0222508
0.0239295
0.0257315
0.0276648
0.029738
0.03196
0.0343406
0.0368903
0.0396197
0.0425403
0.0456649
0.0490065
0.0525798
0.0563997
0.0604825
0.064847
0.0695121
0.0744993
0.0798319
0.085534
0.0916333
0.0981601
0.105148
0.112631
0.120647
0.129235
0.138434
0.148277
0.158793
0.16998
0.181813
0.194118
0.206755
0.218834
0.230313
0.236794
0.241599
0.22113
0.208164
0.0794213
0.0426769
-0.366478
0.00125597
0.00125717
0.00126196
0.00127034
0.00128174
0.00129619
0.00131391
0.00133506
0.00135975
0.00138815
0.00142045
0.00145685
0.00149761
0.00154297
0.00159323
0.00164871
0.00170976
0.00177675
0.00185011
0.0019303
0.00201781
0.0021132
0.00221705
0.00233002
0.0024528
0.00258617
0.00273094
0.00288803
0.00305841
0.00324313
0.00344334
0.00366028
0.00389529
0.00414981
0.0044254
0.00472375
0.00504666
0.00539609
0.00577413
0.00618305
0.00662525
0.00710334
0.00762009
0.00817848
0.0087817
0.00943313
0.0101364
0.0108954
0.0117142
0.0125971
0.013549
0.0145746
0.0156792
0.0168684
0.0181481
0.0195244
0.021004
0.0225938
0.0243013
0.0261343
0.028101
0.0302104
0.0324718
0.0348951
0.0374911
0.0402708
0.0432463
0.0464308
0.049838
0.0534826
0.0573815
0.0615519
0.0660127
0.0707857
0.0758933
0.0813601
0.0872149
0.0934876
0.100211
0.107424
0.115169
0.123493
0.132444
0.142075
0.152439
0.163595
0.175577
0.188411
0.202019
0.216346
0.230774
0.245291
0.256524
0.266969
0.257255
0.253647
0.140224
0.114412
-0.392652
0.00126634
0.00126775
0.00127273
0.00128128
0.00129289
0.00130757
0.00132554
0.00134697
0.00137197
0.00140071
0.00143338
0.00147019
0.0015114
0.00155725
0.00160805
0.00166412
0.0017258
0.00179349
0.00186762
0.00194864
0.00203707
0.00213345
0.0022384
0.00235257
0.00247667
0.00261149
0.00275787
0.00291671
0.00308902
0.00327588
0.00347844
0.00369797
0.00393583
0.00419349
0.00447254
0.0047747
0.0051018
0.00545583
0.00583893
0.0062534
0.00670169
0.00718644
0.00771049
0.00827686
0.00888878
0.0095497
0.0102633
0.0110336
0.0118646
0.0127609
0.0137271
0.0147684
0.01589
0.0170975
0.018397
0.0197948
0.0212976
0.0229127
0.0246474
0.0265098
0.0285085
0.0306526
0.0329516
0.0354156
0.0380558
0.0408837
0.0439119
0.0471536
0.0506239
0.0543379
0.0583129
0.062568
0.0671224
0.0719987
0.0772216
0.0828184
0.0888195
0.095258
0.102171
0.109602
0.117601
0.126219
0.135515
0.145559
0.156424
0.168189
0.18093
0.194718
0.209564
0.225498
0.242155
0.259601
0.27548
0.291518
0.293806
0.300127
0.221365
0.205929
-0.307312
0.00127605
0.00127765
0.00128281
0.00129151
0.0013033
0.00131819
0.00133639
0.00135807
0.00138335
0.00141239
0.00144539
0.00148257
0.00152417
0.00157046
0.00162172
0.0016783
0.00174055
0.00180885
0.00188364
0.00196539
0.00205462
0.00215188
0.00225779
0.00237301
0.00249827
0.00263437
0.00278215
0.00294254
0.00311656
0.0033053
0.00350995
0.00373178
0.00397218
0.00423264
0.00451479
0.00482036
0.00515123
0.00550942
0.0058971
0.0063166
0.00677042
0.00726125
0.00779196
0.00836563
0.00898553
0.0096552
0.0103784
0.011159
0.0120014
0.01291
0.0138897
0.0149456
0.016083
0.0173076
0.0186258
0.0200438
0.0215686
0.0232074
0.0249678
0.0268582
0.0288873
0.0310642
0.0333988
0.0359016
0.0385843
0.0414585
0.0445371
0.0478341
0.0513648
0.0551457
0.0591941
0.0635299
0.0681745
0.0731512
0.0784862
0.0842077
0.090349
0.0969479
0.104044
0.111685
0.119926
0.128824
0.138451
0.148889
0.160229
0.172573
0.186029
0.200716
0.216723
0.234174
0.252928
0.273137
0.293381
0.314813
0.328801
0.345415
0.311895
0.305823
-0.0346839
0.0012851
0.00128688
0.00129219
0.00130103
0.00131298
0.00132806
0.00134646
0.00136836
0.00139388
0.00142319
0.00145648
0.00149397
0.00153591
0.00158257
0.00163425
0.00169127
0.00175399
0.00182282
0.00189818
0.00198056
0.00207047
0.00216848
0.00227521
0.00239133
0.00251759
0.00265478
0.00280377
0.0029655
0.00314101
0.00333138
0.00353784
0.00376168
0.00400431
0.00426724
0.00455212
0.00486072
0.00519493
0.00555682
0.00594859
0.0063726
0.0068314
0.00732771
0.00786445
0.00844474
0.00907192
0.00974956
0.0104815
0.0112716
0.0121245
0.0130445
0.0140366
0.015106
0.0162581
0.0174989
0.0188345
0.0202714
0.0218168
0.023478
0.0252628
0.0271796
0.0292374
0.0314456
0.0338142
0.0363541
0.039077
0.0419953
0.0451224
0.0484726
0.0520611
0.0559056
0.0600243
0.0644374
0.0691681
0.0742415
0.0796845
0.0855264
0.0918041
0.0985572
0.105828
0.11367
0.12214
0.131306
0.141248
0.152062
0.163851
0.176741
0.190873
0.206407
0.223503
0.242356
0.263021
0.285775
0.309957
0.336448
0.360675
0.387585
0.392878
0.401412
0.277975
0.00129349
0.00129542
0.00130087
0.00130984
0.00132193
0.00133717
0.00135575
0.00137784
0.00140357
0.0014331
0.00146664
0.0015044
0.00154663
0.00159361
0.00164562
0.00170301
0.00176614
0.0018354
0.00191124
0.00199414
0.00208461
0.00218324
0.00229066
0.00240754
0.00253462
0.00267273
0.00282273
0.00298559
0.00316234
0.00335411
0.0035621
0.00378766
0.0040322
0.00429726
0.0045845
0.00489573
0.00523286
0.005598
0.00599336
0.00642136
0.00688457
0.00738577
0.0079279
0.00851414
0.00914788
0.00983274
0.0105726
0.0113714
0.0122338
0.0131642
0.0141678
0.0152497
0.0164154
0.0176711
0.0190229
0.0204775
0.0220421
0.0237243
0.025532
0.0274737
0.0295586
0.0317964
0.0341973
0.0367724
0.0395337
0.042494
0.0456668
0.0490675
0.0527118
0.0566171
0.0608034
0.0652918
0.0701055
0.0752702
0.0808157
0.0867735
0.0931816
0.100082
0.10752
0.115552
0.124241
0.133664
0.143908
0.155076
0.167288
0.180688
0.195444
0.211758
0.229853
0.249986
0.272379
0.297423
0.325027
0.356002
0.388402
0.424908
0.456346
0.486494
0.491433
0.00130121
0.00130329
0.00130886
0.00131793
0.00133015
0.00134553
0.00136426
0.00138651
0.00141241
0.00144214
0.00147588
0.00151386
0.00155633
0.00160356
0.00165585
0.00171354
0.00177698
0.0018466
0.00192281
0.00200612
0.00209705
0.00219617
0.00230413
0.00242161
0.00254936
0.0026882
0.00283902
0.00300279
0.00318055
0.00337346
0.00358273
0.0038097
0.00405583
0.00432267
0.00461191
0.00492536
0.00526499
0.00563291
0.00603138
0.00646284
0.0069299
0.00743537
0.00798226
0.00857377
0.00921334
0.00990462
0.0106515
0.0114583
0.0123292
0.0132692
0.0142831
0.0153765
0.0165547
0.0178241
0.0191908
0.0206619
0.0222444
0.0239461
0.0257751
0.0277402
0.0298505
0.032116
0.0345475
0.037156
0.0399539
0.0429541
0.0461707
0.0496195
0.0533172
0.0572813
0.0615322
0.0660924
0.0709855
0.0762381
0.0818817
0.0879501
0.0944817
0.101522
0.109121
0.117334
0.126232
0.135899
0.146426
0.157926
0.170532
0.18441
0.199746
0.216771
0.235766
0.257061
0.280985
0.308021
0.338464
0.3732
0.411757
0.45594
0.502527
0.551413
0.601909
0.00130828
0.00131048
0.00131615
0.00132531
0.00133763
0.00135313
0.00137198
0.00139436
0.00142041
0.00145029
0.00148419
0.00152235
0.001565
0.00161243
0.00166493
0.00172284
0.00178653
0.0018564
0.0019329
0.00201652
0.00210778
0.00220727
0.00231563
0.00243355
0.0025618
0.00270119
0.00285263
0.00301709
0.00319564
0.00338942
0.00359969
0.00382779
0.00407518
0.00434345
0.00463431
0.00494959
0.00529128
0.00566151
0.00606258
0.00649697
0.00696731
0.00747645
0.00802744
0.00862352
0.00926818
0.00996513
0.0107183
0.011532
0.0124107
0.0133591
0.0143825
0.0154861
0.0166758
0.0179577
0.0193381
0.0208243
0.0224234
0.0241432
0.0259921
0.0279789
0.0301131
0.0324048
0.0348648
0.0375047
0.0403373
0.0433754
0.0466337
0.0501281
0.0538762
0.0578964
0.0622089
0.0668367
0.0718049
0.0771429
0.0828813
0.0890555
0.0957051
0.102879
0.110628
0.119015
0.128113
0.138006
0.1488
0.16061
0.173582
0.187897
0.203761
0.221434
0.241233
0.263533
0.28876
0.317477
0.350178
0.387811
0.430611
0.47991
0.533993
0.592067
0.643777
0.00131468
0.00131699
0.00132275
0.00133197
0.00134438
0.00135997
0.00137892
0.0014014
0.00142756
0.00145755
0.00149158
0.00152986
0.00157265
0.00162021
0.00167286
0.00173092
0.00179477
0.00186482
0.0019415
0.00202531
0.00211679
0.00221652
0.00232514
0.00244335
0.00257193
0.00271169
0.00286355
0.00302849
0.00320758
0.00340198
0.00361296
0.00384189
0.00409022
0.00435957
0.00465167
0.00496837
0.00531167
0.00568375
0.00608693
0.0065237
0.00699674
0.00750894
0.00806337
0.00866333
0.00931235
0.0100142
0.0107728
0.0115926
0.0124781
0.013434
0.0144657
0.0155786
0.0167785
0.0180717
0.0194647
0.0209646
0.0225789
0.0243154
0.0261826
0.0281897
0.0303462
0.0326621
0.0351488
0.0378183
0.0406833
0.0437569
0.0470542
0.0505915
0.0543874
0.0584609
0.062832
0.0675243
0.0725639
0.0779822
0.08381
0.0900841
0.0968468
0.104146
0.112038
0.120589
0.129875
0.139981
0.15102
0.163119
0.176429
0.191139
0.207477
0.225727
0.246227
0.269381
0.295684
0.325735
0.36013
0.399768
0.445059
0.496886
0.552896
0.610464
0.650307
0.00132043
0.00132281
0.00132864
0.00133792
0.00135039
0.00136604
0.00138506
0.00140762
0.00143384
0.00146391
0.00149801
0.00153637
0.00157923
0.00162687
0.00167959
0.00173773
0.00180166
0.00187178
0.00194855
0.00203245
0.00212402
0.00222385
0.00233258
0.00245093
0.00257965
0.00271959
0.00287166
0.00303685
0.00321624
0.00341101
0.00362242
0.00385185
0.0041008
0.00437088
0.00466383
0.00498153
0.00532602
0.00569947
0.00610425
0.00654286
0.00701804
0.00753268
0.0080899
0.00869304
0.00934568
0.0100516
0.0108149
0.0116399
0.0125312
0.0134938
0.0145328
0.0156539
0.0168629
0.0181662
0.0195705
0.0210828
0.0227109
0.0244627
0.0263468
0.0283724
0.0305494
0.0328882
0.0354
0.0380969
0.040992
0.0440991
0.0474337
0.0510121
0.0548526
0.0589752
0.0634017
0.0681555
0.0732638
0.0787574
0.0846695
0.0910387
0.0979069
0.105325
0.113352
0.122055
0.131512
0.141817
0.153086
0.165447
0.179062
0.194131
0.210892
0.229638
0.25072
0.274571
0.301705
0.332729
0.368262
0.40906
0.455284
0.507293
0.56113
0.612783
0.64061
0.00132551
0.00132793
0.00133381
0.00134314
0.00135564
0.00137133
0.00139039
0.00141298
0.00143925
0.00146934
0.00150347
0.00154184
0.00158472
0.00163236
0.00168509
0.00174322
0.00180713
0.00187724
0.00195397
0.00203784
0.00212937
0.00222915
0.00233785
0.00245615
0.00258485
0.00272476
0.00287683
0.00304203
0.00322147
0.00341633
0.00362787
0.0038575
0.00410672
0.00437716
0.00467058
0.00498887
0.00533408
0.00570843
0.00611429
0.0065542
0.00703092
0.00754739
0.00810675
0.00871239
0.0093679
0.0100771
0.0108442
0.0116736
0.0125698
0.013538
0.0145834
0.0157116
0.0169286
0.018241
0.0196554
0.0211788
0.0228193
0.024585
0.0264846
0.0285273
0.0307233
0.0330831
0.035618
0.0383406
0.0412638
0.0444022
0.0477718
0.0513889
0.0552718
0.0594408
0.0639191
0.0687311
0.0739038
0.0794685
0.0854599
0.0919183
0.0988866
0.106417
0.114571
0.123415
0.133031
0.143518
0.154993
0.167592
0.18148
0.19686
0.213978
0.23314
0.254699
0.279091
0.306807
0.338449
0.374548
0.415672
0.461532
0.511896
0.561123
0.605984
0.618041
0.00132992
0.00133236
0.00133828
0.00134762
0.00136014
0.00137584
0.00139491
0.0014175
0.00144376
0.00147384
0.00150794
0.00154628
0.0015891
0.00163669
0.00168934
0.00174738
0.00181119
0.00188116
0.00195776
0.00204147
0.00213283
0.00223243
0.00234092
0.00245902
0.00258749
0.00272719
0.00287902
0.00304401
0.00322325
0.00341791
0.0036293
0.00385881
0.00410795
0.00437838
0.00467186
0.00499031
0.0053358
0.00571055
0.00611697
0.00655763
0.00703531
0.00755297
0.00811381
0.00872124
0.00937889
0.0100907
0.0108608
0.0116936
0.0125938
0.0135667
0.0146174
0.0157517
0.0169757
0.0182958
0.019719
0.0212525
0.0229042
0.0246823
0.0265958
0.028654
0.0308673
0.0332463
0.0358025
0.0385488
0.0414984
0.0446658
0.0480673
0.0517199
0.0556429
0.0598564
0.0643835
0.0692499
0.0744826
0.0801141
0.08618
0.0927206
0.0997821
0.107416
0.115685
0.124661
0.134426
0.145077
0.156736
0.169546
0.183675
0.19932
0.216735
0.23623
0.258156
0.282929
0.311001
0.342897
0.379033
0.41974
0.464186
0.51167
0.554668
0.592628
0.587221
0.00133366
0.0013361
0.00134203
0.00135138
0.00136388
0.00137957
0.00139862
0.00142118
0.00144738
0.0014774
0.00151143
0.00154968
0.0015924
0.00163985
0.00169235
0.00175022
0.00181383
0.00188358
0.00195993
0.00204336
0.00213442
0.00223369
0.00234183
0.00245954
0.0025876
0.00272687
0.00287827
0.0030428
0.00322157
0.00341577
0.0036267
0.00385576
0.00410448
0.00437452
0.00466766
0.00498584
0.00533114
0.00570581
0.00611227
0.00655312
0.00703115
0.00754939
0.00811103
0.00871953
0.00937857
0.0100921
0.0108643
0.0116997
0.0126031
0.0135796
0.0146346
0.0157739
0.0170036
0.0183303
0.019761
0.0213032
0.0229646
0.0247538
0.0266797
0.0287517
0.0309804
0.0333769
0.0359528
0.0387209
0.0416947
0.0448891
0.0483206
0.0520064
0.0559656
0.06022
0.0647929
0.0697098
0.0749987
0.0806921
0.0868272
0.0934451
0.100592
0.108321
0.116694
0.125788
0.135684
0.146483
0.158309
0.171302
0.185631
0.201498
0.219154
0.238902
0.261064
0.286042
0.314249
0.346098
0.3818
0.421473
0.4636
0.507341
0.54305
0.57448
0.553327
0.00133673
0.00133915
0.00134508
0.00135441
0.00136688
0.00138252
0.00140152
0.00142401
0.00145013
0.00148005
0.00151395
0.00155205
0.0015946
0.00164186
0.00169413
0.00175174
0.00181506
0.00188449
0.00196048
0.00204351
0.00213413
0.00223293
0.00234055
0.00245771
0.00258518
0.00272382
0.00287455
0.00303838
0.00321642
0.00340988
0.00362004
0.00384833
0.00409628
0.00436555
0.00465795
0.00497542
0.00532007
0.00569415
0.00610011
0.00654057
0.00701837
0.00753652
0.00809828
0.00870712
0.00936679
0.0100812
0.0108547
0.0116918
0.0125974
0.0135765
0.0146348
0.0157779
0.0170122
0.0183443
0.0197812
0.0213306
0.0230003
0.0247989
0.0267357
0.0288201
0.0310627
0.0334747
0.0360679
0.0388556
0.0418514
0.0450702
0.0485293
0.0522457
0.0562388
0.0605308
0.0651453
0.0701079
0.0754478
0.0811979
0.0873967
0.0940845
0.101308
0.109125
0.117595
0.126794
0.136808
0.147737
0.159703
0.172847
0.187337
0.203377
0.221208
0.241119
0.263402
0.28842
0.316516
0.348013
0.382851
0.420923
0.460052
0.499562
0.527681
0.553278
0.518462
0.00133912
0.00134151
0.00134742
0.00135671
0.00136912
0.0013847
0.00140361
0.001426
0.001452
0.00148177
0.0015155
0.0015534
0.00159571
0.00164271
0.00169468
0.00175195
0.00181489
0.00188389
0.00195941
0.00204192
0.00213197
0.00223014
0.00233709
0.00245352
0.00258021
0.00271801
0.00286786
0.00303076
0.00320781
0.00340023
0.00360932
0.00383651
0.00408332
0.00435145
0.00464269
0.00495902
0.00530253
0.00567552
0.00608044
0.00651994
0.00699687
0.00751428
0.00807546
0.00868391
0.0093434
0.010058
0.0108319
0.0116697
0.0125764
0.0135571
0.0146175
0.0157634
0.0170011
0.0183374
0.0197792
0.0213344
0.023011
0.0248176
0.0267635
0.0288585
0.0311131
0.0335388
0.0361476
0.0389524
0.0419677
0.0452088
0.0486918
0.0524353
0.0564594
0.0607855
0.0654375
0.0704421
0.0758285
0.0816311
0.0878867
0.0946371
0.101931
0.109824
0.11838
0.127671
0.137787
0.148828
0.160908
0.174172
0.188787
0.204947
0.222878
0.242852
0.265146
0.29006
0.317817
0.348642
0.382234
0.418278
0.453959
0.489065
0.509672
0.530104
0.483715
0.00134085
0.00134319
0.00134905
0.00135829
0.00137062
0.0013861
0.0014049
0.00142715
0.00145299
0.00148257
0.00151608
0.00155372
0.00159575
0.00164241
0.001694
0.00175085
0.00181332
0.00188179
0.00195673
0.0020386
0.00212794
0.00222535
0.00233146
0.00244699
0.00257271
0.00270947
0.0028582
0.00301991
0.00319572
0.00338682
0.00359453
0.00382028
0.0040656
0.00433219
0.00462186
0.00493659
0.00527849
0.00564987
0.0060532
0.00649115
0.00696658
0.00748259
0.00804247
0.00864977
0.00930828
0.0100221
0.0107955
0.0116331
0.01254
0.0135213
0.0145826
0.0157301
0.0169699
0.018309
0.0197544
0.021314
0.022996
0.024809
0.0267623
0.0288659
0.0311307
0.0335681
0.0361903
0.0390102
0.0420425
0.045303
0.0488079
0.0525755
0.0566267
0.060983
0.0656686
0.070711
0.0761395
0.0819882
0.0882941
0.0950999
0.102456
0.110416
0.119044
0.128412
0.138611
0.14974
0.161911
0.175264
0.189961
0.206187
0.22415
0.244094
0.266269
0.290912
0.318149
0.348058
0.380072
0.41379
0.445739
0.476426
0.489758
0.505634
0.449808
0.00134191
0.00134417
0.00134998
0.00135914
0.00137137
0.00138673
0.00140538
0.00142747
0.00145311
0.00148245
0.00151569
0.00155303
0.0015947
0.00164097
0.00169211
0.00174845
0.00181035
0.0018782
0.00195244
0.00203355
0.00212206
0.00221855
0.00232366
0.00243811
0.00256267
0.00269818
0.00284557
0.00300586
0.00318014
0.00336964
0.00357566
0.00379962
0.00404309
0.00430776
0.00459543
0.0049081
0.0052479
0.00561715
0.00601833
0.00645413
0.00692743
0.00744135