/*--------------------------------*- C++ -*----------------------------------*\
  =========                 |
  \\      /  F ield         | OpenFOAM: The Open Source CFD Toolbox
   \\    /   O peration     | Website:  https://openfoam.org
    \\  /    A nd           | Version:  9
     \\/     M anipulation  |
\*---------------------------------------------------------------------------*/
FoamFile
{
    format      ascii;
    class       surfaceScalarField;
    location    "3000";
    object      phi;
}
// * * * * * * * * * * * * * * * * * * * * * * * * * * * * * * * * * * * * * //

dimensions      [0 3 -1 0 0 0 0];

internalField   nonuniform List<scalar> 
26626
(
-0.377071
0.169215
-0.36681
-0.345552
0.17533
-0.356203
0.16531
-0.335531
0.15591
-0.316237
0.146994
-0.298045
-0.281025
0.181273
-0.345216
0.170941
-0.3252
0.161162
-0.306458
0.152004
-0.288887
0.143363
-0.272385
-0.256848
0.187042
-0.333883
0.176365
-0.314523
0.16631
-0.296402
0.156841
-0.279418
0.147924
-0.263468
0.139491
-0.248415
-0.234327
0.19257
-0.322206
0.181617
-0.303569
0.171285
-0.28607
0.16154
-0.269673
0.152312
-0.254241
0.143672
-0.239774
0.135481
-0.226135
0.127773
-0.213289
0.120511
-0.201199
0.113656
-0.189806
0.107192
-0.179061
0.101094
-0.16893
0.0953378
-0.159372
0.0899136
-0.15036
0.0847934
-0.141852
0.0799635
-0.133834
0.0754066
-0.126261
0.0711055
-0.119123
0.0670531
-0.11239
0.0632254
-0.106029
0.0596188
-0.100038
0.0562127
-0.0943782
0.0530001
-0.0890433
0.0499673
-0.0840055
0.0471072
-0.0792578
0.044413
-0.0747796
0.0418674
-0.0705468
0.0394669
-0.0665627
0.0372012
-0.0627997
0.0350634
-0.059251
-0.0558993
0.197994
-0.310252
0.186695
-0.292271
0.176053
-0.275427
0.166031
-0.259651
0.156597
-0.244806
0.14768
-0.230858
0.139281
-0.217737
0.131356
-0.205364
0.12389
-0.193733
0.116845
-0.182761
0.110198
-0.172413
0.103931
-0.162663
0.0980162
-0.153458
0.0924365
-0.14478
0.0871748
-0.13659
0.0822102
-0.128869
0.0775289
-0.12158
0.0731103
-0.114705
0.068937
-0.108216
0.0650091
-0.102101
0.0612955
-0.0963241
0.0577961
-0.0908788
0.0544936
-0.0857409
0.0513813
-0.0808931
0.0484417
-0.0763183
0.0456646
-0.0720025
0.0430533
-0.0679355
0.0405838
-0.0640931
0.0382559
-0.0604718
0.0360558
-0.057051
0.0339871
-0.0538306
0.0320289
-0.0507865
-0.0479186
0.00217951
-0.00453249
0.00201774
-0.0042884
0.00186465
-0.00405873
0.00172043
-0.0038433
0.00158415
-0.00364074
0.00145543
-0.00345092
0.00133357
-0.00327327
0.00121873
-0.00310739
0.00111027
-0.00295218
0.00100758
-0.00280836
0.000910568
-0.00267464
0.000818506
-0.00255088
0.000731474
-0.0024375
0.000649138
-0.0023343
0.000571201
-0.00224002
0.000496699
-0.0021567
0.00042603
-0.0020832
0.000358856
-0.00202268
0.000295227
-0.00197216
0.000234315
-0.00194021
0.000177192
-0.00191678
0.00012516
-0.00192116
7.92758e-05
-0.00192979
4.32146e-05
-0.00195333
8.97845e-06
-0.00203692
-0.00174687
0.203142
-0.297952
0.191567
-0.280696
0.180648
-0.264508
0.170384
-0.249388
0.160674
-0.235096
0.15155
-0.221734
0.142909
-0.209096
0.134804
-0.197259
0.127142
-0.18607
0.119911
-0.17553
0.113094
-0.165597
0.106661
-0.15623
0.100594
-0.147391
0.0948696
-0.139056
0.0894697
-0.13119
0.0843738
-0.123773
0.0795682
-0.116774
0.0750356
-0.110172
0.0707587
-0.103939
0.0667202
-0.0980626
0.0629168
-0.0925207
0.0593241
-0.0872861
0.0559353
-0.0823521
0.0527366
-0.0776944
0.049721
-0.0733027
0.0468782
-0.0691597
0.0441909
-0.0652482
0.0416591
-0.0615613
0.039269
-0.0580817
0.0370172
-0.0547991
0.0348897
-0.0517031
0.0328831
-0.0487799
0.0309906
-0.0460261
-0.0434243
0.0024323
-0.0046059
0.0022564
-0.00435659
0.00209041
-0.00412241
0.00193359
-0.00390191
0.00178539
-0.00369511
0.00164575
-0.0035011
0.00151362
-0.00331879
0.00138887
-0.00314852
0.00127085
-0.00298937
0.00115945
-0.00284078
0.00105408
-0.00270299
0.000954415
-0.00257497
0.000860244
-0.00245671
0.000771188
-0.00234845
0.000685857
-0.00224897
0.00060541
-0.00215958
0.000529015
-0.00208031
0.000455708
-0.00200989
0.000385795
-0.00195276
0.000318389
-0.00190475
0.000255095
-0.00187692
0.000194339
-0.00185603
0.000139351
-0.00186618
8.82199e-05
-0.00187866
4.80761e-05
-0.00191318
1.16774e-05
-0.00200052
-0.00173519
0.208117
-0.285376
0.196265
-0.268845
0.185104
-0.253347
0.17453
-0.238814
0.164647
-0.225212
0.155247
-0.212334
0.146451
-0.200301
0.138118
-0.188926
0.130265
-0.178217
0.122862
-0.168126
0.115876
-0.158611
0.109284
-0.149638
0.103069
-0.141176
0.0972059
-0.133193
0.0916747
-0.125659
0.0864545
-0.118553
0.0815315
-0.111851
0.0768849
-0.105525
0.0725043
-0.0995589
0.0683726
-0.0939308
0.0644689
-0.088617
0.0607933
-0.0836105
0.0573216
-0.0788804
0.0540469
-0.0744197
0.0509553
-0.0702111
0.0480399
-0.0662444
0.0452905
-0.0624988
0.0426965
-0.0589674
0.0402476
-0.0556329
0.0379405
-0.052492
0.0357577
-0.0495203
0.0337028
-0.046725
0.0317618
-0.0440852
0.0299349
-0.0415974
0.0282082
-0.0392445
-0.0370298
0.00270288
-0.00466817
0.00251184
-0.00441486
0.0023319
-0.00417665
0.00216182
-0.00395233
0.00200126
-0.00374135
0.00184977
-0.00354361
0.00170637
-0.0033577
0.00157138
-0.0031838
0.00144356
-0.0030207
0.00132301
-0.00286882
0.0012086
-0.00272637
0.00110085
-0.00259524
0.000998287
-0.00247241
0.000901625
-0.00236005
0.000810144
-0.00225697
0.000723499
-0.00216232
0.000640785
-0.00207686
0.000562037
-0.00200156
0.000486356
-0.00193421
0.000413919
-0.00188033
0.000344615
-0.00183545
0.00027737
-0.00180967
0.00021416
-0.00179282
0.000154203
-0.00180622
9.87711e-05
-0.00182323
5.54492e-05
-0.00186986
1.24521e-05
-0.00195753
-0.00172274
0.21285
-0.272489
0.200722
-0.256717
0.189319
-0.241944
0.178573
-0.228067
0.168378
-0.215018
0.15884
-0.202796
0.149803
-0.191263
0.141287
-0.18041
0.133258
-0.170189
0.125681
-0.16055
0.11854
-0.15147
0.1118
-0.142898
0.105443
-0.134819
0.099442
-0.127192
0.0937865
-0.120003
0.0884488
-0.113215
0.0834118
-0.106814
0.0786615
-0.100775
0.0741808
-0.0950782
0.0699524
-0.0897024
0.0659623
-0.0846269
0.0621969
-0.0798451
0.0586457
-0.0753292
0.0552984
-0.0710724
0.0521377
-0.0670504
0.0491567
-0.0632634
0.0463451
-0.0596871
0.0436889
-0.0563112
0.0411882
-0.0531322
0.0388223
-0.050126
0.036598
-0.0472961
0.0344947
-0.0446217
0.0325089
-0.0420993
0.030637
-0.0397256
0.0288723
-0.0374798
0.0272043
-0.0353618
-0.0333684
0.00451721
-0.00662576
0.00422478
-0.0062591
0.00394846
-0.00591318
0.00368826
-0.00558767
0.00344215
-0.00528012
0.00321064
-0.00499121
0.0029917
-0.00471847
0.00278501
-0.00446148
0.00258978
-0.00421963
0.00240562
-0.00399249
0.00223183
-0.00377854
0.00206787
-0.0035774
0.00191287
-0.00338861
0.00176652
-0.00321135
0.00162794
-0.00304522
0.00149727
-0.00289003
0.00137378
-0.00274533
0.00125756
-0.00261014
0.00114664
-0.00248433
0.0010425
-0.00236826
0.000943536
-0.00226109
0.000849352
-0.00216278
0.00076041
-0.00207338
0.000675375
-0.00199183
0.000594397
-0.00192058
0.000517778
-0.00185759
0.000442971
-0.00180552
0.000371128
-0.00176361
0.000301967
-0.00174051
0.000234584
-0.00172544
0.000170811
-0.00174245
0.000111137
-0.00176356
6.10468e-05
-0.00181977
1.50122e-05
-0.00191149
-0.00170773
0.217445
-0.25936
0.205041
-0.244313
0.193362
-0.230265
0.182373
-0.217079
0.172013
-0.204658
0.16223
-0.193012
0.153009
-0.182043
0.144314
-0.171715
0.136116
-0.16199
0.12838
-0.152815
0.121084
-0.144174
0.114202
-0.136016
0.107707
-0.128324
0.101585
-0.12107
0.0958014
-0.11422
0.0903532
-0.107767
0.0852091
-0.10167
0.0803587
-0.0959248
0.0757778
-0.0904973
0.0714595
-0.0853841
0.0673866
-0.080554
0.0635417
-0.0760002
0.059918
-0.0717055
0.0564947
-0.0676491
0.0532683
-0.0638241
0.0502217
-0.0602167
0.0473478
-0.0568132
0.0446398
-0.0536032
0.0420804
-0.0505728
0.0396695
-0.0477152
0.0373934
-0.04502
0.0352452
-0.0424734
0.0332213
-0.0400755
0.031308
-0.0378123
0.0295053
-0.035677
0.0278062
-0.0336627
0.0261969
-0.0317591
0.0246844
-0.0299695
-0.0282768
0.00494943
-0.00667941
0.0046331
-0.00630943
0.00433478
-0.00596077
0.00405318
-0.00563158
0.00378731
-0.0053218
0.0035364
-0.00502921
0.00329941
-0.00475423
0.00307573
-0.00449479
0.00286501
-0.00425075
0.00266608
-0.0040207
0.0024779
-0.00380431
0.00230025
-0.00360089
0.00213287
-0.00341002
0.00197427
-0.00323001
0.00182506
-0.00306214
0.001684
-0.00290416
0.00155091
-0.00275694
0.00142444
-0.00261886
0.00130503
-0.00249073
0.00119242
-0.00237172
0.00108593
-0.00226177
0.000984801
-0.00215996
0.00088888
-0.00206686
0.000797372
-0.00198187
0.00071144
-0.0019059
0.000628386
-0.00183753
0.000548971
-0.00177818
0.000472736
-0.00172928
0.000399464
-0.00169033
0.000326847
-0.00166789
0.000255419
-0.00165401
0.000189145
-0.00167617
0.000124028
-0.00169844
7.05921e-05
-0.00176633
1.66e-05
-0.0018575
-0.00169113
0.221729
-0.245955
0.209117
-0.231702
0.197231
-0.218379
0.185997
-0.205845
0.175434
-0.194094
0.165464
-0.183042
0.156064
-0.172643
0.147199
-0.16285
0.138835
-0.153626
0.130948
-0.144927
0.123506
-0.136732
0.116486
-0.128995
0.109863
-0.121701
0.103617
-0.114824
0.0977265
-0.10833
0.0921643
-0.102205
0.0869201
-0.0964256
0.0819695
-0.0909742
0.0773022
-0.08583
0.0728976
-0.0809794
0.0687417
-0.0763981
0.0648243
-0.0720828
0.0611245
-0.0680057
0.0576356
-0.0641601
0.0543436
-0.0605321
0.0512382
-0.0571113
0.048309
-0.053884
0.0455457
-0.0508399
0.0429379
-0.047965
0.0404753
-0.0452525
0.0381542
-0.042699
0.0359645
-0.0402837
0.0338992
-0.0380101
0.0319479
-0.035861
0.0301106
-0.0338397
0.0283735
-0.0319256
0.02674
-0.0301256
0.0251929
-0.0284224
0.0237356
-0.0268195
0.0223612
-0.0253064
-0.0238799
0.00744931
-0.00893574
0.00699298
-0.00843726
0.0065622
-0.00796678
0.00615564
-0.00752295
0.0057719
-0.00710445
0.00540958
-0.00670985
0.00506832
-0.00633815
0.00474585
-0.00598696
0.00444131
-0.00565623
0.00415407
-0.00534434
0.00388283
-0.00505056
0.00362712
-0.00477351
0.00338589
-0.004513
0.00315799
-0.00426688
0.00294266
-0.00403542
0.00273957
-0.00381761
0.00254822
-0.00361296
0.00236722
-0.00341989
0.00219617
-0.00323897
0.0020352
-0.00306904
0.00188254
-0.00290948
0.00173874
-0.00276036
0.00160259
-0.00262078
0.0014741
-0.00249037
0.00135265
-0.00236929
0.00123752
-0.00225658
0.00112851
-0.00215277
0.00102523
-0.00205667
0.000927767
-0.0019694
0.000834768
-0.00188887
0.000746254
-0.00181738
0.000661873
-0.00175315
0.000580501
-0.00169681
0.000503039
-0.00165182
0.000425912
-0.00161321
0.00035178
-0.00159376
0.000279721
-0.00158195
0.000207932
-0.00160438
0.000137495
-0.001628
7.95106e-05
-0.00170835
1.86122e-05
-0.0017966
-0.00167252
0.22584
-0.232309
0.212987
-0.218849
0.200869
-0.206261
0.189452
-0.194428
0.178688
-0.18333
0.168535
-0.172889
0.158963
-0.16307
0.149932
-0.153819
0.141416
-0.145111
0.133384
-0.136895
0.125804
-0.129152
0.118656
-0.121848
0.111913
-0.114957
0.105549
-0.10846
0.0995445
-0.102325
0.0938821
-0.0965427
0.0885411
-0.0910846
0.0835042
-0.0859372
0.0787506
-0.0810764
0.074263
-0.0764919
0.0700311
-0.0721663
0.0660377
-0.0680894
0.0622689
-0.0642369
0.0587177
-0.060609
0.055367
-0.0571814
0.0522029
-0.0539472
0.0492184
-0.0508996
0.0464033
-0.0480247
0.0437471
-0.0453088
0.041243
-0.0427484
0.038877
-0.040333
0.0366493
-0.038056
0.0345425
-0.0359033
0.0325601
-0.0338785
0.0306847
-0.0319644
0.0289165
-0.0301574
0.0272485
-0.0284576
0.0256772
-0.0268511
0.0241922
-0.0253345
0.0227936
-0.0239078
0.021471
-0.0225573
0.0202244
-0.0212862
0.0190479
-0.0200867
0.0179381
-0.0189547
-0.017887
0.00760683
-0.00844347
0.00714185
-0.00797227
0.00670314
-0.00752807
0.00628937
-0.00710918
0.00589871
-0.00671379
0.00553021
-0.00634135
0.00518182
-0.00598975
0.00485342
-0.00565856
0.0045437
-0.00534651
0.00425135
-0.00505199
0.00397524
-0.00477445
0.00371509
-0.00451336
0.00346874
-0.00426665
0.00323681
-0.00403495
0.00301794
-0.00381655
0.00281125
-0.00361092
0.00261574
-0.00341744
0.00243172
-0.00323587
0.002258
-0.00306525
0.00209364
-0.00290468
0.00193849
-0.00275433
0.001792
-0.00261387
0.0016534
-0.00248218
0.0015226
-0.00235957
0.00139866
-0.00224535
0.00128174
-0.00213966
0.00117072
-0.00204175
0.00106591
-0.00195186
0.000965638
-0.00186913
0.000871245
-0.00179448
0.000780894
-0.00172703
0.000694638
-0.00166689
0.000612824
-0.00161499
0.000531997
-0.00157099
0.000455469
-0.00153668
0.000378455
-0.00151675
0.000302961
-0.00150646
0.000228093
-0.00152952
0.000155148
-0.00155506
8.86844e-05
-0.00164189
2.46596e-05
-0.00173258
-0.00164786
0.229744
-0.218454
0.216656
-0.205761
0.204324
-0.193929
0.19271
-0.182815
0.18176
-0.172379
0.171438
-0.162567
0.161699
-0.153331
0.152517
-0.144637
0.143852
-0.136446
0.135682
-0.128725
0.127974
-0.121445
0.120702
-0.114575
0.113844
-0.108099
0.107374
-0.101989
0.101269
-0.0962207
0.09551
-0.0907836
0.0900758
-0.0856503
0.084949
-0.0808105
0.0801125
-0.0762399
0.0755524
-0.0719318
0.071248
-0.0678619
0.0671855
-0.0640268
0.0633579
-0.0604093
0.0597411
-0.0569922
0.0563317
-0.0537719
0.0531157
-0.0507313
0.0500794
-0.0478633
0.0472159
-0.0451612
0.0445148
-0.0426077
0.0419658
-0.0401993
0.0395618
-0.0379291
0.0372926
-0.0357868
0.0351547
-0.0337654
0.0331342
-0.0318581
0.0312278
-0.030058
0.0294319
-0.0283615
0.0277362
-0.0267619
0.0261338
-0.0252487
0.0246281
-0.0238288
0.0232019
-0.0224816
0.0218575
-0.0212129
0.0205895
-0.0200182
0.0193929
-0.0188902
0.0182637
-0.0178255
0.0171988
-0.0168221
0.0161939
-0.015875
-0.0149816
0.00775701
-0.00794256
0.00728411
-0.00749937
0.00683782
-0.00708178
0.00641676
-0.00668812
0.00601957
-0.00631661
0.00564456
-0.00596633
0.00529092
-0.00563612
0.00495701
-0.00532465
0.00464151
-0.00503101
0.0043443
-0.00475478
0.00406367
-0.00449382
0.00379864
-0.00424833
0.00354885
-0.00401686
0.00331269
-0.0037988
0.00309012
-0.00359398
0.0028799
-0.00340069
0.00268158
-0.00321913
0.00249426
-0.00304854
0.00231702
-0.00288801
0.00215017
-0.00273783
0.00199257
-0.00259673
0.00184341
-0.00246471
0.0017027
-0.00234147
0.00156971
-0.00222658
0.00144372
-0.00211935
0.00132448
-0.00202042
0.00121191
-0.00192918
0.00110489
-0.00184484
0.00100371
-0.00176795
0.000907096
-0.00169787
0.0008156
-0.00163554
0.000727755
-0.00157905
0.000643501
-0.00153074
0.000562532
-0.00149003
0.000483465
-0.00145761
0.000405602
-0.00143888
0.000328067
-0.00142892
0.000250711
-0.00145216
0.000171726
-0.00147607
0.000102004
-0.00157216
2.72078e-05
-0.00165778
-0.00162065
0.233351
-0.204338
0.220083
-0.192494
0.207568
-0.181415
0.195772
-0.171018
0.184652
-0.161259
0.17416
-0.152076
0.164273
-0.143444
0.154946
-0.13531
0.146147
-0.127647
0.137845
-0.120423
0.130017
-0.113616
0.12263
-0.107189
0.115662
-0.101131
0.109088
-0.0954148
0.10289
-0.0900229
0.0970377
-0.0849313
0.0915206
-0.0801332
0.0863109
-0.0756008
0.0814018
-0.0713309
0.0767658
-0.0672957
0.0723923
-0.0634884
0.0682676
-0.0599021
0.0643743
-0.0565161
0.0607057
-0.0533236
0.057241
-0.0503072
0.0539732
-0.0474635
0.050892
-0.0447821
0.0479802
-0.0422493
0.0452376
-0.0398651
0.0426505
-0.0376122
0.0402051
-0.0354837
0.0379013
-0.033483
0.0357254
-0.0315895
0.0336738
-0.0298066
0.0317397
-0.0281239
0.0299162
-0.026538
0.0281929
-0.0250385
0.0265697
-0.0236255
0.0250329
-0.022292
0.0235856
-0.0210343
0.0222219
-0.0198491
0.0209338
-0.0187301
0.0197186
-0.017675
0.0185721
-0.0166791
0.0174898
-0.0157399
0.0164687
-0.0148539
0.0155057
-0.0140185
0.0145965
-0.0132298
0.0137391
-0.0124868
0.0129297
-0.011785
0.0121662
-0.0111239
0.0114456
-0.0104996
0.0107658
-0.00991125
0.0101239
-0.00935579
0.00951832
-0.0088325
0.00894697
-0.00833869
0.00840769
-0.00787287
0.00789887
-0.00743375
0.00741874
-0.00701924
0.0069659
-0.00662894
0.00653794
-0.00626016
0.00613459
-0.00591326
0.00575362
-0.00558536
0.00539415
-0.00527665
0.00505515
-0.00498564
0.00473515
-0.00471101
0.00443311
-0.00445274
0.00414805
-0.00420876
0.00387894
-0.00397922
0.00362506
-0.00376298
0.00338559
-0.00355933
0.00315904
-0.00336742
0.00294557
-0.00318722
0.00274413
-0.00301769
0.00255396
-0.00285838
0.00237425
-0.0027083
0.00220463
-0.00256821
0.00204437
-0.00243647
0.0018931
-0.00231344
0.00175023
-0.00219859
0.00161494
-0.0020913
0.00148729
-0.0019917
0.00136625
-0.00189938
0.00125157
-0.0018145
0.00114278
-0.00173605
0.00103989
-0.00166506
0.000942133
-0.00160011
0.000848513
-0.00154192
0.000759572
-0.00149011
0.000673789
-0.00144495
0.000591956
-0.00140819
0.000511345
-0.001377
0.000432859
-0.0013604
0.000353664
-0.00134973
0.000273067
-0.00137156
0.00019247
-0.00139547
0.00011429
-0.00149398
3.5154e-05
-0.00157864
-0.0015855
0.236774
-0.190028
0.223303
-0.179022
0.210605
-0.168717
0.198639
-0.159052
0.18735
-0.14997
0.176714
-0.141439
0.166678
-0.133409
0.157216
-0.125847
0.148289
-0.11872
0.13987
-0.112004
0.131924
-0.10567
0.124434
-0.0996992
0.117366
-0.0940627
0.110698
-0.0887472
0.104404
-0.0837284
0.0984686
-0.0789961
0.0928686
-0.0745331
0.0875864
-0.0703186
0.0826013
-0.0663458
0.0778996
-0.0625939
0.0734674
-0.0590562
0.0692805
-0.0557152
0.065332
-0.0525677
0.0616047
-0.0495962
0.0580916
-0.0467941
0.0547789
-0.0441508
0.0516493
-0.0416526
0.0486994
-0.0392994
0.0459154
-0.0370811
0.0432868
-0.0349836
0.0408103
-0.0330071
0.038472
-0.0311447
0.0362684
-0.0293859
0.0341857
-0.0277239
0.032224
-0.0261621
0.0303694
-0.0246834
0.0286218
-0.023291
0.026971
-0.0219747
0.0254159
-0.0207369
0.0239489
-0.0195672
0.0225637
-0.018464
0.0212573
-0.0174237
0.0200238
-0.0164415
0.0188607
-0.015516
0.0177629
-0.0146421
0.0167273
-0.0138183
0.0157497
-0.0130409
0.0148281
-0.0123082
0.0139576
-0.0116163
0.0131368
-0.0109642
0.0123619
-0.0103491
0.0116309
-0.0097686
0.010941
-0.00922136
0.0102902
-0.00870495
0.00967601
-0.0082183
0.00909634
-0.00775903
0.00854917
-0.00732569
0.00803309
-0.00691767
0.00754603
-0.00653218
0.0070863
-0.00616921
0.00665252
-0.00582638
0.00624291
-0.00550365
0.00585685
-0.00519931
0.00549223
-0.00491204
0.00514801
-0.00464142
0.00482353
-0.00438653
0.004517
-0.00414621
0.00422786
-0.00391963
0.00395491
-0.00370627
0.00369742
-0.00350549
0.00345429
-0.0033162
0.00322497
-0.0031381
0.00300839
-0.00297065
0.00280397
-0.00281327
0.00261086
-0.00266527
0.00242889
-0.00252632
0.00225675
-0.00239608
0.00209418
-0.0022739
0.00194064
-0.00215991
0.0017955
-0.00205345
0.00165835
-0.00195415
0.00152859
-0.00186194
0.00140605
-0.00177684
0.0012897
-0.00169815
0.0011797
-0.00162604
0.0010749
-0.00156026
0.000975593
-0.00150081
0.000880972
-0.00144729
0.000791151
-0.00140029
0.000704674
-0.00135848
0.000620779
-0.0013243
0.00053879
-0.00129501
0.000458923
-0.00128053
0.000379294
-0.0012701
0.000298493
-0.00129076
0.000211504
-0.00130849
0.000129299
-0.00141178
4.01498e-05
-0.0014895
-0.00154535
0.239942
-0.175534
0.226292
-0.165371
0.213428
-0.155853
0.2013
-0.146924
0.189869
-0.138539
0.179087
-0.130658
0.168921
-0.123242
0.159327
-0.116254
0.150283
-0.109676
0.141753
-0.103474
0.133704
-0.097621
0.12611
-0.0921058
0.118945
-0.0868977
0.112188
-0.0819898
0.105814
-0.0773545
0.0998028
-0.072985
0.0941267
-0.0688571
0.0887755
-0.0649673
0.0837213
-0.0612917
0.0789574
-0.05783
0.074463
-0.0545618
0.0702243
-0.0514765
0.066224
-0.0485674
0.0624483
-0.0458205
0.0588868
-0.0432326
0.0555258
-0.0407897
0.0523582
-0.038485
0.0493668
-0.0363081
0.0465448
-0.034259
0.0438817
-0.0323205
0.0413741
-0.0304995
0.0390046
-0.0287753
0.0367665
-0.0271478
0.0346596
-0.0256171
0.0326668
-0.0241693
0.0307914
-0.022808
0.0290197
-0.0215193
0.0273506
-0.0203056
0.0257737
-0.01916
0.0242862
-0.0180798
0.0228831
-0.0170608
0.0215587
-0.0160993
0.0203093
-0.015192
0.0191303
-0.014337
0.018018
-0.0135298
0.0169686
-0.0127689
0.0159785
-0.0120509
0.0150437
-0.0113734
0.0141622
-0.0107347
0.0133303
-0.0101323
0.0125451
-0.00956386
0.0118044
-0.00902794
0.0111053
-0.00852217
0.0104458
-0.00804548
0.00982329
-0.0075958
0.00923567
-0.0071714
0.00868192
-0.00677195
0.00815859
-0.00639434
0.007665
-0.00603859
0.00719908
-0.00570329
0.00675973
-0.00538703
0.00634497
-0.00508889
0.00595338
-0.00480772
0.00558424
-0.00454289
0.0052356
-0.00429278
0.00490657
-0.0040575
0.0045963
-0.00383594
0.00430326
-0.00362659
0.0040269
-0.0034299
0.00376585
-0.00324444
0.00351955
-0.0030699
0.00328714
-0.00290569
0.00306748
-0.00275099
0.00286062
-0.00260641
0.00266491
-0.00246956
0.00248024
-0.00234166
0.00230588
-0.00222172
0.00214143
-0.00210945
0.00198573
-0.00200421
0.00183879
-0.0019065
0.00169984
-0.0018152
0.00156844
-0.00173055
0.00144404
-0.00165244
0.00132616
-0.00158027
0.00121468
-0.00151456
0.00110881
-0.00145439
0.00100813
-0.00140013
0.000912178
-0.00135135
0.000820481
-0.00130859
0.000732605
-0.0012706
0.000648033
-0.00123973
0.000566388
-0.00121337
0.000485393
-0.00119954
0.000403475
-0.00118818
0.000321498
-0.00120878
0.000234059
-0.00122105
0.000145949
-0.00132367
4.77915e-05
-0.00139134
-0.00149755
0.242872
-0.160865
0.229055
-0.151555
0.216033
-0.14283
0.203759
-0.13465
0.192191
-0.12697
0.181278
-0.119745
0.170987
-0.112951
0.161283
-0.10655
0.152128
-0.100521
0.143491
-0.0948377
0.135345
-0.0894749
0.127659
-0.0844191
0.120411
-0.0796497
0.11357
-0.0751494
0.107117
-0.0709011
0.10103
-0.0668978
0.0952881
-0.0631154
0.0898678
-0.059547
0.0847584
-0.0561823
0.0799357
-0.0530074
0.0753826
-0.0500087
0.0710921
-0.047186
0.06704
-0.0445153
0.0632228
-0.0420034
0.0596199
-0.0396297
0.0562174
-0.0373872
0.0530083
-0.035276
0.0499824
-0.0332822
0.0471258
-0.0314024
0.044435
-0.0296298
0.0418929
-0.0279573
0.0394923
-0.0263747
0.0372335
-0.0248889
0.035099
-0.0234826
0.0330854
-0.0221557
0.0311837
-0.0209063
0.0293916
-0.0197271
0.0277
-0.018614
0.0261044
-0.0175645
0.024599
-0.0165744
0.0231782
-0.0156401
0.021838
-0.014759
0.0205737
-0.0139277
0.0193802
-0.0131435
0.0182547
-0.0124043
0.0171921
-0.0117063
0.0161897
-0.0110484
0.0152442
-0.0104279
0.0143519
-0.00984238
0.0135097
-0.00929009
0.0127151
-0.00876931
0.0119651
-0.00827797
0.011258
-0.00781502
0.0105902
-0.00737772
0.00996014
-0.0069657
0.00936596
-0.00657723
0.00880464
-0.00621063
0.00827546
-0.00586516
0.00777599
-0.00553911
0.00730485
-0.00523215
0.00686003
-0.00494221
0.00644005
-0.00466891
0.006044
-0.00441166
0.00567006
-0.00416895
0.00531724
-0.00393995
0.00498448
-0.00372475
0.00467008
-0.00352154
0.00437365
-0.00333016
0.00409349
-0.00314974
0.00382961
-0.00298057
0.00358025
-0.00282054
0.003345
-0.00267044
0.00312308
-0.00252907
0.0029132
-0.00239653
0.00271547
-0.00227183
0.00252871
-0.00215489
0.00235223
-0.00204524
0.00218552
-0.00194273
0.00202821
-0.0018469
0.00187934
-0.00175764
0.00173856
-0.00167442
0.00160559
-0.00159758
0.00147967
-0.00152652
0.00136063
-0.00146123
0.00124742
-0.00140135
0.00114023
-0.00134719
0.00103822
-0.00129811
0.000941429
-0.00125456
0.000848492
-0.00121565
0.000759942
-0.00118205
0.000674148
-0.00115393
0.000591254
-0.00113047
0.000509948
-0.00111823
0.000429055
-0.00110729
0.000346689
-0.00112642
0.000256652
-0.00113101
0.000164069
-0.00123108
5.64546e-05
-0.00128372
-0.0014411
0.24556
-0.14604
0.231588
-0.137583
0.218427
-0.12967
0.206019
-0.122242
0.194319
-0.11527
0.183289
-0.108715
0.172884
-0.102546
0.163073
-0.0967389
0.153818
-0.0912665
0.145084
-0.0861044
0.136852
-0.0812424
0.129082
-0.0766495
0.121752
-0.0723189
0.114835
-0.0682332
0.108313
-0.0643787
0.102157
-0.0607416
0.0963493
-0.0573081
0.0908736
-0.0540714
0.0857055
-0.0510142
0.0808276
-0.0481295
0.0762331
-0.0454141
0.0718907
-0.0428437
0.0677972
-0.0404217
0.0639351
-0.0381413
0.0602873
-0.0359818
0.0568536
-0.0339536
0.05361
-0.0320324
0.0505496
-0.0302217
0.0476653
-0.0285182
0.04494
-0.0269045
0.0423667
-0.025384
0.0399455
-0.0239535
0.0376555
-0.0225989
0.0355002
-0.0213273
0.0334642
-0.0201197
0.0315435
-0.0189857
0.029731
-0.0179146
0.0280214
-0.0169044
0.0264082
-0.0159513
0.0248859
-0.0150521
0.0234495
-0.0142037
0.0220947
-0.0134042
0.0208163
-0.0126493
0.01961
-0.0119372
0.0184717
-0.0112661
0.0173981
-0.0106326
0.0163845
-0.0100349
0.0154283
-0.00947171
0.014526
-0.00894006
0.0136748
-0.0084389
0.0128716
-0.00796612
0.0121137
-0.00752004
0.0113983
-0.00709959
0.0107236
-0.00670305
0.0100869
-0.00632901
0.00948586
-0.00597619
0.00891863
-0.00564341
0.00838358
-0.00533011
0.0078786
-0.00503413
0.00740162
-0.00475517
0.00695194
-0.00449252
0.00652789
-0.00424487
0.0061273
-0.00401107
0.00574925
-0.0037909
0.00539259
-0.00358329
0.00505604
-0.00338821
0.00473818
-0.00320368
0.0044383
-0.00303028
0.00415574
-0.00286717
0.00388872
-0.00271355
0.00363662
-0.00256844
0.00339884
-0.00243265
0.00317449
-0.00230472
0.00296253
-0.00218457
0.00276239
-0.0020717
0.00257351
-0.00196601
0.00239518
-0.00186691
0.00222673
-0.00177428
0.0020676
-0.00168777
0.00191715
-0.00160719
0.00177513
-0.0015324
0.00164051
-0.00146296
0.00151327
-0.00139928
0.00139266
-0.00134063
0.00127855
-0.00128724
0.00117011
-0.00123876
0.00106696
-0.00119496
0.000968563
-0.00115616
0.000874932
-0.00112202
0.000785238
-0.00109236
0.000698957
-0.00106765
0.000615657
-0.00104717
0.000533227
-0.0010358
0.000451158
-0.00102522
0.000369218
-0.00104448
0.000278367
-0.00104016
0.000188446
-0.00114116
6.66477e-05
-0.00116193
-0.00137445
0.247992
-0.131067
0.233889
-0.123479
0.220593
-0.116374
0.208064
-0.109713
0.19625
-0.103456
0.18511
-0.0975743
0.174608
-0.0920442
0.164697
-0.0868278
0.155348
-0.0819183
0.146536
-0.0772916
0.138213
-0.0729202
0.130368
-0.068804
0.122968
-0.0649189
0.115986
-0.0612513
0.109398
-0.0577906
0.103183
-0.0545266
0.0973171
-0.0514421
0.0917862
-0.0485405
0.0865663
-0.0457942
0.0816435
-0.0432067
0.0769971
-0.0407677
0.0726168
-0.0384633
0.0684818
-0.0362867
0.0645817
-0.0342412
0.0609028
-0.0323029
0.0574277
-0.0304785
0.054153
-0.0287577
0.0510649
-0.0271336
0.0481461
-0.0255994
0.0453966
-0.0241549
0.042806
-0.0227935
0.0403571
-0.0215045
0.0380471
-0.0202889
0.0358649
-0.0191451
0.0338102
-0.018065
0.0318701
-0.0170457
0.03004
-0.0160844
0.0283131
-0.0151775
0.026684
-0.0143221
0.0251468
-0.0135148
0.023697
-0.0127539
0.0223283
-0.0120355
0.0210371
-0.011358
0.0198194
-0.0107195
0.0186697
-0.0101164
0.017585
-0.00954792
0.0165621
-0.00901198
0.0155962
-0.00850583
0.0146853
-0.00802909
0.0138254
-0.00757906
0.0130143
-0.00715499
0.0122487
-0.00675449
0.0115267
-0.00637757
0.0108448
-0.00602111
0.0102016
-0.00568581
0.00959462
-0.00536921
0.00902224
-0.00507103
0.00848163
-0.0047895
0.0079718
-0.0045243
0.00749068
-0.00427405
0.00703654
-0.00403838
0.00660763
-0.00381596
0.00620327
-0.00360671
0.00582174
-0.00340937
0.00546169
-0.00322324
0.00512166
-0.00304817
0.00480102
-0.00288304
0.00449842
-0.00272768
0.00421274
-0.00258149
0.00394284
-0.00244365
0.00368857
-0.00231416
0.00344835
-0.00219244
0.00322163
-0.00207801
0.00300753
-0.00197046
0.00280561
-0.00186978
0.00261487
-0.00177527
0.00243471
-0.00168675
0.00226453
-0.00160411
0.00210388
-0.00152712
0.00195205
-0.00145536
0.00180846
-0.00138881
0.00167279
-0.00132729
0.00154408
-0.00127056
0.0014223
-0.00121885
0.00130671
-0.00117165
0.00119715
-0.0011292
0.00109326
-0.00109108
0.000994238
-0.00105714
0.0008996
-0.00102738
0.000808884
-0.00100164
0.000721504
-0.00098027
0.000637
-0.00096267
0.000554917
-0.000953716
0.00047278
-0.000943082
0.000390849
-0.000962547
0.000302737
-0.000952047
0.000211864
-0.00105029
8.43241e-05
-0.00103439
-0.00129013
0.250179
-0.115958
0.235951
-0.109251
0.222542
-0.102965
0.209902
-0.097074
0.197985
-0.0915383
0.186751
-0.0863403
0.176149
-0.0814423
0.166155
-0.0768338
0.156727
-0.0724907
0.147832
-0.068396
0.139444
-0.0645323
0.131529
-0.0608894
0.12406
-0.05745
0.117016
-0.0542072
0.110369
-0.0511438
0.104099
-0.0482564
0.0981882
-0.0455312
0.0926055
-0.0429578
0.0873407
-0.0405294
0.0823764
-0.0382425
0.0776886
-0.0360799
0.0732668
-0.0340415
0.0690972
-0.0321171
0.0651626
-0.0303066
0.0614491
-0.0285894
0.0579499
-0.0269792
0.0546441
-0.0254519
0.0515249
-0.0240144
0.0485854
-0.0226598
0.0458117
-0.0213813
0.0431917
-0.0201735
0.0407217
-0.0190345
0.0383934
-0.0179605
0.0361949
-0.0169467
0.0341209
-0.0159909
0.0321642
-0.015089
0.0303178
-0.014238
0.0285761
-0.0134358
0.0269325
-0.0126785
0.0253821
-0.0119645
0.0239188
-0.0112906
0.0225384
-0.0106551
0.0212361
-0.0100556
0.020007
-0.00949044
0.0188476
-0.0089571
0.0177536
-0.00845387
0.016721
-0.00797941
0.0157475
-0.00753232
0.0148282
-0.00710982
0.0139611
-0.00671194
0.0131427
-0.00633659
0.0123706
-0.0059824
0.0116417
-0.00564864
0.0109546
-0.005334
0.0103058
-0.00503704
0.00969368
-0.00475708
0.00911576
-0.00449311
0.00857034
-0.00424409
0.00805602
-0.00400997
0.00757073
-0.00378877
0.00711242
-0.00358008
0.00668039
-0.00338392
0.00627226
-0.00319859
0.0058873
-0.0030244
0.00552411
-0.00286006
0.00518103
-0.0027051
0.00485764
-0.00255965
0.00455223
-0.00242227
0.00426392
-0.00229318
0.003992
-0.00217173
0.00373531
-0.00205748
0.00349302
-0.00195014
0.00326431
-0.00184929
0.00304854
-0.00175469
0.0028447
-0.00166594
0.00265225
-0.00158281
0.00247062
-0.00150513
0.00229905
-0.00143254
0.00213673
-0.00136479
0.0019836
-0.00130223
0.0018386
-0.00124381
0.00170173
-0.00119042
0.00157219
-0.00114102
0.00144936
-0.00109602
0.00133278
-0.00105507
0.00122226
-0.00101868
0.00111702
-0.000985837
0.001017
-0.000957117
0.000921371
-0.000931751
0.000830127
-0.000910397
0.000742898
-0.000893041
0.000657472
-0.000877244
0.000574798
-0.000871043
0.000492504
-0.000860787
0.000410418
-0.000880461
0.000323639
-0.000865268
0.000234041
-0.000960693
0.000106426
-0.00090677
-0.0011837
0.252114
-0.10074
0.237775
-0.0949131
0.224262
-0.0894515
0.211526
-0.0843378
0.199519
-0.0795308
0.188195
-0.0750166
0.177517
-0.0707644
0.167447
-0.0667638
0.157947
-0.0629906
0.148982
-0.0594313
0.140529
-0.0560788
0.132552
-0.0529126
0.125028
-0.0499257
0.117928
-0.0471079
0.111233
-0.0444487
0.104915
-0.0419379
0.0989521
-0.0395685
0.093328
-0.0373337
0.0880252
-0.0352266
0.0830195
-0.0332368
0.0782971
-0.0313575
0.0738442
-0.0295887
0.0696436
-0.0279165
0.0656744
-0.0263375
0.0619368
-0.0248517
0.0584064
-0.0234488
0.0550764
-0.0221219
0.0519372
-0.0208752
0.0489735
-0.0196961
0.0461763
-0.0185841
0.0435384
-0.0175356
0.0410497
-0.0165459
0.0387013
-0.0156121
0.0364863
-0.0147316
0.0343963
-0.0139009
0.0324245
-0.0131172
0.0305642
-0.0123778
0.0288086
-0.0116802
0.0271526
-0.0110224
0.0255898
-0.0104017
0.0241157
-0.00981657
0.0227246
-0.009264
0.0214122
-0.00874328
0.0201738
-0.00825199
0.0190054
-0.00778877
0.0179031
-0.00735152
0.0168629
-0.00693923
0.0158811