/*--------------------------------*- C++ -*----------------------------------*\
  =========                 |
  \\      /  F ield         | OpenFOAM: The Open Source CFD Toolbox
   \\    /   O peration     | Website:  https://openfoam.org
    \\  /    A nd           | Version:  9
     \\/     M anipulation  |
\*---------------------------------------------------------------------------*/
FoamFile
{
    format      ascii;
    class       volScalarField;
    location    "3000";
    object      ReThetat;
}
// * * * * * * * * * * * * * * * * * * * * * * * * * * * * * * * * * * * * * //

dimensions      [0 0 0 0 0 0 0];

internalField   nonuniform List<scalar> 
13446
(
901.956
899.941
1133.21
896.844
1153.88
1365.69
1460.51
1466.06
891.657
1395.53
1466.14
1466.8
1464.2
1463.8
891.689
1198.04
1445.88
1467.51
1464.22
1463.38
1463.46
890.003
1151.87
1441.69
1467.44
1463.95
1462.93
1462.92
1463
1463.07
1463.13
1463.18
1463.14
1466.25
1363.28
1263.03
1214.91
1195.12
1186.55
1182.16
1179.1
1176.17
1173.05
1169.77
1166.48
1163.22
1160.04
1156.9
1153.8
1150.73
1147.65
1144.56
888.159
1127
1425.85
1465.21
1463.7
1462.5
1462.4
1462.41
1462.39
1462.36
1462.31
1462.22
1463.13
1426.2
1301.29
1232.17
1202.34
1189.15
1182.74
1179.03
1176.06
1172.94
1169.52
1165.89
1162.22
1158.57
1154.94
1151.29
1147.61
1143.81
1139.93
1135.95
1131.86
711.299
712.702
714.389
715.459
715.456
716.205
716.626
716.598
717.652
718.792
718.113
716.662
716.267
715.855
713.351
709.089
705.175
702.458
700.372
697.41
693.341
687.227
654.773
620.28
587.396
572.916
885.965
1111.97
1347.66
1458.35
1463.97
1462.18
1461.89
1461.81
1461.72
1461.6
1461.45
1461.28
1460.8
1466.81
1350.45
1258.38
1212.95
1192.52
1183.08
1178.44
1175.44
1172.48
1168.93
1164.89
1160.64
1156.36
1152.08
1147.75
1143.33
1138.77
1134.04
1129.12
1123.97
1118.58
671.043
673.762
677.527
683.304
686.583
688.989
692.498
694.818
697.034
700.657
703.306
703.503
703.557
704.862
705.262
703.031
699.478
696.76
695.121
693.662
691.102
687.369
682.567
652.238
619.07
586.985
572.889
883.757
1109.8
1342.28
1460.68
1462.21
1461.54
1461.37
1461.24
1461.07
1460.87
1460.62
1460.34
1459.97
1460.91
1411.69
1295.08
1227.3
1196.51
1182.82
1176.81
1173.94
1171.52
1168.21
1163.92
1159.14
1154.27
1149.4
1144.5
1139.46
1134.22
1128.73
1122.97
1116.9
1110.48
1103.69
1096.47
621.657
629.538
630.667
641.124
650.637
655.132
661.041
667.466
671.695
676.819
683.163
686.909
688.074
690.097
693.11
694.021
692.074
689.528
688.206
687.64
686.753
684.587
681.218
677.5
649.489
617.712
586.521
572.869
882.637
1138.46
1427.11
1463.46
1462.79
1461.33
1460.89
1460.68
1460.44
1460.15
1459.82
1459.41
1458.92
1457.88
1464.71
1337.9
1246.38
1202.03
1182.62
1174.74
1171.94
1170.32
1167.6
1163.28
1158
1152.47
1146.99
1141.5
1135.87
1129.98
1123.79
1117.26
1110.34
1103.02
1095.24
1086.94
1078.14
636.22
624.965
615.074
606.945
600.805
596.441
593.346
590.244
588.424
590.547
607.396
615.345
621.461
632.401
640.904
647.313
656.199
664.896
669.222
671.855
676.382
680.812
681.901
680.506
679.405
679.6
679.984
679.584
677.834
674.894
671.937
646.526
616.186
586.016
572.848
881.136
1113.88
1393.18
1459.65
1463.28
1461.11
1460.41
1460.13
1459.83
1459.46
1459
1458.38
1457.56
1456.52
1457.81
1386.39
1273.89
1210.86
1183.47
1172.75
1169.44
1168.55
1166.74
1162.76
1157.17
1151.02
1144.86
1138.77
1132.56
1126.09
1119.24
1112
1104.32
1096.17
1087.51
1078.29
1068.47
1058.03
1046.95
634.796
623.22
612.971
604.371
597.685
592.945
589.776
587.683
586.423
585.667
585.053
582.656
581.368
591.472
604.351
612.984
622.288
635.47
645.283
649.94
655.077
662.422
667.672
668.815
668.511
669.238
670.903
672.088
672.158
670.879
668.404
665.825
643.38
614.531
585.435
572.829
877.155
1133.76
1419.32
1465.21
1461.76
1460.26
1459.91
1459.61
1459.23
1458.75
1458.02
1457.15
1456.15
1455.02
1453.82
1447.93
1310.09
1225
1187.17
1171.94
1166.92
1166.02
1165.11
1161.91
1156.44
1149.88
1143.11
1136.38
1129.59
1122.53
1115.08
1107.19
1098.81
1089.91
1080.45
1070.4
1059.72
1048.39
1036.38
1023.69
1010.3
712.14
695.373
679.349
664.073
649.712
636.477
624.552
614.071
605.256
598.391
593.525
590.44
588.5
587.122
586.073
585.087
584.094
583.358
582.784
581.447
578.933
587.354
597.887
614.673
623.398
629.22
638.266
648.08
653.36
654.877
656.382
659.128
662.063
663.922
664.491
663.734
661.74
659.429
640.134
612.658
584.784
572.807
869.373
1145.29
1436.27
1465.57
1461.52
1459.89
1459.46
1459.09
1458.57
1457.83
1456.96
1455.96
1454.82
1453.53
1451.81
1454.91
1351.97
1250.01
1196.71
1173.81
1165.18
1162.88
1162.2
1160.02
1155.35
1148.91
1141.75
1134.42
1126.99
1119.33
1111.3
1102.8
1093.78
1084.2
1074.02
1063.23
1051.8
1039.71
1026.92
1013.43
999.248
984.42
968.912
952.756
936.053
699.053
682.951
667.626
653.158
639.755
627.631
616.942
607.864
600.643
595.535
592.245
590.326
589.018
587.917
586.884
585.91
585.005
584.135
583.271
582.457
582.03
580.677
576.963
594.237
598.985
608.295
622.044
632.853
637.642
640.446
644.39
649.039
652.994
655.481
656.612
656.424
654.903
652.94
636.803
610.564
584.064
572.779
874.508
1140.24
1435.4
1465.23
1461.19
1459.51
1459.02
1458.51
1457.78
1456.93
1455.94
1454.83
1453.55
1452.08
1450.36
1449.66
1413.98
1291.02
1215.08
1180.07
1165.24
1159.64
1157.88
1156.44
1153.19
1147.71
1140.69
1132.93
1124.86
1116.55
1107.91
1098.83
1089.22
1079.01
1068.2
1056.75
1044.66
1031.88
1018.41
1004.26
989.445
973.974
957.878
941.21
924.003
906.372
888.365
688.347
672.869
658.206
644.541
632.107
621.087
611.606
603.898
598.275
594.746
592.561
590.991
589.685
588.525
587.473
586.505
585.596
584.731
583.906
583.12
582.303
581.496
581.484
578.41
576.499
589.747
606.415
615.85
620.719
626.094
632.654
638.835
643.631
646.79
648.563
648.965
647.906
646.316
633.278
608.21
583.238
572.747
949.527
1162
1435.96
1464.47
1460.77
1459.13
1458.53
1457.84
1457.02
1456.07
1454.99
1453.75
1452.33
1450.7
1448.87
1446.43
1450.21
1347.88
1247.57
1193.22
1168.17
1157.08
1152.68
1151.07
1149.37
1145.7
1139.65
1131.88
1123.26
1114.24
1104.94
1095.27
1085.1
1074.34
1062.96
1050.92
1038.22
1024.83
1010.77
996.052
980.683
964.691
948.125
931.026
913.454
895.478
877.162
858.64
839.933
821.131
802.347
783.675
765.21
747.051
729.303
712.065
695.444
679.563
664.525
650.492
637.647
626.187
616.227
607.915
601.621
597.583
594.958
593.066
591.556
590.271
589.135
588.103
587.146
586.244
585.385
584.559
583.759
582.985
582.255
581.398
580.874
580.895
576.725
590.688
596.843
603.681
612.322
621.016
628.347
633.966
637.898
640.359
641.363
640.77
639.608
629.564
605.523
582.342
572.71
1014.47
1198.82
1438.3
1463.69
1460.35
1458.73
1457.97
1457.2
1456.29
1455.25
1454.08
1452.72
1451.17
1449.4
1447.39
1445.08
1443.11
1422.24
1298.01
1215.87
1175.24
1156.17
1147.68
1144.68
1143.91
1142.39
1138.16
1131.09
1122.18
1112.47
1102.45
1092.15
1081.44
1070.17
1058.27
1045.7
1032.45
1018.53
1003.94
988.719
972.866
956.434
939.464
922.005
904.129
885.901
867.404
848.717
829.925
811.124
792.406
773.863
755.592
737.691
720.26
703.403
687.234
671.875
657.466
644.165
632.169
621.648
612.671
605.574
600.805
597.615
595.337
593.577
592.126
590.874
589.757
588.736
587.785
586.887
586.03
585.206
584.409
583.634
582.871
582.143
581.42
580.514
580.493
577.626
579.585
588.292
599.065
609.143
617.517
624.07
628.847
632.016
633.638
633.525
632.882
625.269
602.493
581.35
572.67
883.191
1172.71
1437.29
1464.16
1460.2
1458.26
1457.41
1456.58
1455.6
1454.5
1453.22
1451.75
1450.08
1448.18
1446.01
1443.56
1440.53
1441.98
1359.9
1252.08
1188.46
1158.03
1144.17
1138.71
1137.68
1137.78
1135.81
1130.17
1121.48
1111.24
1100.47
1089.5
1078.23
1066.47
1054.1
1041.05
1027.31
1012.91
997.867
982.191
965.921
949.104
931.782
914.024
895.89
877.461
858.81
840.029
821.205
802.424
783.783
765.373
747.293
729.637
712.511
696.022
680.289
665.442
651.628
639.027
627.846
618.174
610.19
604.51
600.62
597.859
595.777
594.11
592.708
591.484
590.385
589.374
588.43
587.536
586.681
585.858
585.06
584.283
583.525
582.781
582.045
581.367
580.554
580.087
579.616
576.359
586.179
597.075
606.487
614.018
619.654
623.56
625.825
626.216
626.172
620.119
599.128
580.294
572.627
861.885
1100.31
1428.84
1464.67
1460.12
1457.82
1456.89
1456
1454.97
1453.77
1452.4
1450.84
1449.05
1447.03
1444.72
1442.1
1439.17
1435.27
1440.71
1302.33
1209.36
1164.32
1143.61
1134.66
1132.12
1132.59
1132.45
1128.7
1120.87
1110.46
1099.04
1087.37
1075.5
1063.26
1050.44
1036.95
1022.78
1007.95
992.491
976.414
959.778
942.618
924.998
906.974
888.625
870.023
851.255
832.402
813.553
794.803
776.241
757.966
740.07
722.653
705.82
689.683
674.365
660.008
646.772
634.861
624.437
615.55
608.792
604.047
600.685
598.196
596.254
594.663
593.304
592.105
591.02
590.019
589.08
588.189
587.335
586.511
585.712
584.933
584.172
583.426
582.695
581.967
581.269
580.559
579.741
579.635
576.635
585.58
595.424
603.826
610.341
615.03
617.969
618.892
619.512
612.967
595.469
579.154
572.58
869.005
1134.77
1426.71
1462.6
1459.73
1457.48
1456.43
1455.46
1454.36
1453.09
1451.64
1449.98
1448.1
1445.95
1443.52
1440.76
1437.62
1433.89
1433.8
1352.28
1243.05
1178.43
1147.62
1133.79
1128.61
1128.04
1128.55
1126.48
1119.97
1109.88
1098.07
1085.75
1073.28
1060.53
1047.28
1033.39
1018.83
1003.61
987.77
971.339
954.374
936.913
919.027
900.775
882.238
863.492
844.618
825.709
806.854
788.138
769.658
751.511
733.791
716.597
700.041
684.237
669.317
655.432
642.757
631.51
621.745
613.758
607.995
603.897
600.898
598.606
596.77
595.238
593.914
592.736
591.663
590.669
589.734
588.844
587.99
587.166
586.365
585.584
584.82
584.071
583.333
582.607
581.889
581.176
580.507
579.686
579.508
576.68
584.808
593.652
600.987
606.479
610.114
611.622
612.853
604.782
591.569
577.904
572.532
870.418
1116.03
1417.66
1459.9
1459.81
1457.36
1456
1454.96
1453.8
1452.46
1450.93
1449.19
1447.21
1444.95
1442.4
1439.51
1436.22
1432.53
1428.04
1429.05
1293.91
1202.43
1157.88
1137.3
1128.22
1125.29
1125
1123.72
1118.57
1109.26
1097.42
1084.62
1071.57
1058.3
1044.62
1030.35
1015.43
999.868
983.68
966.933
949.663
931.937
913.809
895.357
876.65
857.778
838.82
819.862
800.999
782.318
763.918
745.892
728.336
711.355
695.058
679.568
665.026
651.592
639.46
628.819
619.67
612.677
607.637
603.975
601.225
599.072
597.317
595.832
594.536
593.375
592.312
591.323
590.39
589.501
588.648
587.822
587.019
586.235
585.467
584.712
583.97
583.237
582.512
581.796
581.077
580.397
579.581
579.35
576.703
583.99
591.743
597.982
602.325
604.471
606.176
596.705
586.295
576.546
572.483
870.109
1105.92
1411.08
1458.41
1459.92
1457.13
1455.58
1454.48
1453.27
1451.87
1450.27
1448.45
1446.39
1444.04
1441.38
1438.35
1434.94
1431.1
1426.54
1425.71
1347.39
1242.4
1178.3
1146.57
1131.63
1125.14
1122.78
1121.06
1116.73
1108.39
1096.92
1083.9
1070.36
1056.59
1042.47
1027.83
1012.58
996.686
980.191
963.152
945.611
927.64
909.296
890.661
871.808
852.816
833.779
814.781
795.912
777.267
758.94
741.023
723.617
706.827
690.771
675.577
661.393
648.387
636.777
626.651
618.237
612.027
607.52
604.181
601.62
599.578
597.888
596.442
595.169
594.021
592.965
591.98
591.049
590.16
589.305
588.477
587.671
586.883
586.11
585.35
584.6
583.859
583.126
582.399
581.679
580.954
580.262
579.443
579.148
576.675
583.06
589.686
594.693
597.52
599.523
590.74
581.653
575.409
572.419
868.84
1147.35
1432
1462.83
1458.74
1456.33
1455.17
1454.07
1452.79
1451.34
1449.67
1447.78
1445.64
1443.2
1440.45
1437.31
1433.78
1429.79
1425.35
1419.64
1423.33
1302.79
1210.88
1162.77
1139.43
1128.05
1122.54
1119.25
1114.9
1107.32
1096.43
1083.47
1069.61
1055.39
1040.84
1025.83
1010.25
994.062
977.287
959.977
942.184
923.988
905.45
886.641
867.648
848.554
829.44
810.401
791.525
772.908
754.642
736.824
719.556
702.944
687.11
672.19
658.339
645.737
634.611
624.926
617.296
611.697
607.588
604.493
602.077
600.12
598.481
597.064
595.808
594.671
593.621
592.639
591.709
590.819
589.961
589.13
588.319
587.526
586.747
585.98
585.222
584.473
583.73
582.992
582.258
581.527
580.79
580.078
579.249
578.88
576.577
582.013
587.382
590.859
593.118
586.245
578.994
574.6
572.32
866.526
1351.13
1451.31
1462.79
1458.11
1455.92
1454.81
1453.68
1452.36
1450.85
1449.13
1447.18
1444.96
1442.45
1439.61
1436.37
1432.73
1428.63
1424.03
1418.7
1415.56
1362.47
1258.72
1189.27
1152.79
1134.28
1124.58
1118.82
1113.57
1106.26
1095.94
1083.25
1069.25
1054.67
1039.71
1024.35
1008.46
991.976
974.937
957.374
939.358
920.949
902.226
883.26
864.134
844.938
825.753
806.67
787.782
769.186
750.972
733.237
716.088
699.637
684.005
669.336
655.794
643.574
632.871
623.628
616.684
611.589
607.795
604.885
602.578
600.686
599.085
597.693
596.452
595.323
594.278
593.297
592.366
591.474
590.613
589.777
588.96
588.16
587.373
586.598
585.831
585.071
584.317
583.567
582.82
582.073
581.325
580.569
579.829
578.979
578.519
576.375
580.763
584.638
587.175
582.084
577.023
573.901
572.194
867.464
1182.3
1434.56
1462.32
1458.08
1455.69
1454.5
1453.32
1451.96
1450.41
1448.64
1446.63
1444.36
1441.78
1438.86
1435.54
1431.81
1427.61
1422.88
1417.61
1411.2
1411.16
1320.51
1228.72
1173.45
1144.5
1129.13
1120.07
1113.15
1105.5
1095.52
1083.17
1069.21
1054.4
1039.09
1023.38
1007.17
990.418
973.131
955.335
937.104
918.497
899.599
880.485
861.232
841.934
822.676
803.545
784.641
766.053
747.877
730.212
713.166
696.853
681.399
666.958
653.7
641.837
631.472
622.883
616.45
611.691
608.106
605.328
603.103
601.263
599.696
598.324
597.096
595.973
594.931
593.95
593.017
592.12
591.254
590.411
589.587
588.778
587.983
587.197
586.42
585.649
584.882
584.119
583.356
582.593
581.827
581.056
580.27
579.491
578.604
578.026
576.036
579.194
581.838
578.666
575.461
573.305
572.071
868.104
1108.46
1421.6
1460.42
1458.34
1455.7
1454.24
1453
1451.61
1450.02
1448.21
1446.15
1443.82
1441.19
1438.19
1434.82
1431.01
1426.72
1421.9
1416.5
1410.45
1403.92
1393.26
1286.99
1205.69
1160.73
1136.98
1123.32
1113.88
1105.22
1095.26
1083.23
1069.44
1054.52
1038.95
1022.91
1006.4
989.381
971.851
953.831
935.395
916.602
897.534
878.275
858.899
839.498
820.165
800.984
782.052
763.462
745.312
727.7
710.736
694.539
679.244
665.009
652.006
640.463
630.393
622.333
616.32
611.847
608.448
605.788
603.638
601.845
600.307
598.952
597.733
596.614
595.572
594.588
593.65
592.747
591.873
591.022
590.19
589.371
588.565
587.769
586.979
586.196
585.415
584.637
583.858
583.077
582.29
581.496
580.69
579.862
579.026
578.081
577.356
575.462
577.422
576.175
574.272
572.824
571.989
867.819
1111.62
1423.3
1460.83
1458.07
1455.44
1453.98
1452.72
1451.3
1449.68
1447.83
1445.74
1443.37
1440.69
1437.64
1434.2
1430.33
1425.97
1421.08
1415.58
1409.47
1402.4
1397.94
1346.42
1253.2
1187.52
1150.42
1129.46
1116.1
1105.6
1095.17
1083.35
1069.82
1054.96
1039.23
1022.91
1006.11
988.822
971.051
952.827
934.194
915.228
895.998
876.596
857.1
837.596
818.182
798.942
779.973
761.37
743.229
725.654
708.756
692.657
677.496
663.435
650.657
639.395
629.574
621.963
616.307
612.076
608.833
606.27
604.18
602.423
600.905
599.561
598.346
597.227
596.182
595.193
594.248
593.338
592.456
591.595
590.752
589.923
589.106
588.297
587.495
586.697
585.901
585.106
584.309
583.508
582.7
581.881
581.047
580.194
579.309
578.394
577.37
576.43
574.649
574.653
573.281
572.457
571.923
867.205
1130.47
1426.94
1461.34
1457.74
1455.13
1453.76
1452.49
1451.04
1449.39
1447.52
1445.39
1442.99
1440.27
1437.17
1433.69
1429.77
1425.36
1420.4
1414.85
1408.64
1401.76
1393.63
1390.55
1315.35
1228.97
1172.15
1139.62
1120.22
1106.77
1095.27
1083.44
1070.24
1055.58
1039.8
1023.28
1006.21
988.668
970.67
952.246
933.432
914.301
894.92
875.377
855.764
836.16
816.66
797.357
778.344
759.717
741.573
724.019
707.168
691.143
676.09
662.176
649.595
638.555
629.016
621.78
616.406
612.36
609.232
606.74
604.692
602.96
601.455
600.117
598.903
597.782
596.732
595.736
594.784
593.866
592.974
592.104
591.25
590.41
589.58
588.758
587.942
587.129
586.317
585.504
584.688
583.866
583.035
582.191
581.33
580.445
579.531
578.57
577.56
576.392
575.26
573.026
572.461
572.276
571.839
866.452
1120.9
1418.36
1460.21
1457.83
1454.93
1453.58
1452.29
1450.83
1449.16
1447.26
1445.11
1442.68
1439.93
1436.81
1433.29
1429.34
1424.89
1419.89
1414.28
1408.03
1401.06
1393.33
1384.22
1382.05
1283.26
1201.12
1152.87
1125.67
1108.54
1095.55
1083.45
1070.52
1056.13
1040.42
1023.77
1006.48
988.711
970.511
951.91
932.937
913.661
894.147
874.483
854.76
835.065
815.484
796.116
777.055
758.397
740.24
722.693
705.869
689.9
674.931
661.137
648.72
637.846
628.661
621.712
616.532
612.611
609.562
607.119
605.101
603.387
601.892
600.558
599.344
598.22
597.167
596.166
595.208
594.282
593.382
592.503
591.639
590.788
589.947
589.112
588.282
587.454
586.625
585.795
584.96
584.117
583.264
582.397
581.512
580.602
579.66
578.672
577.624
576.456
575.19
573.196
572.621
572.168
571.664
861.273
1092.07
1428.25
1461.82
1456.77
1454.65
1453.45
1452.15
1450.66
1448.97
1447.06
1444.89
1442.44
1439.68
1436.54
1433
1429.02
1424.55
1419.52
1413.89
1407.61
1400.6
1392.84
1383.79
1379.81
1298.24
1214.34
1160.29
1128.97
1109.62
1095.61
1083.24
1070.39
1056.14
1040.47
1023.76
1006.34
988.434
970.105
951.39
932.313
912.939
893.338
873.588
853.787
834.023
814.384
794.969
775.871
757.189
739.02
721.477
704.677
688.749
673.847
660.148
647.865
637.122
628.208
621.48
616.455
612.638
609.657
607.259
605.271
603.576
602.094
600.769
599.56
598.439
597.387
596.386
595.426
594.497
593.593
592.709
591.839
590.98
590.13
589.286
588.445
587.605
586.764
585.921
585.072
584.216
583.35
582.468
581.567
580.64
579.679
578.671
577.603
576.413
575.129
573.135
572.283
571.681
571.401
883.694
1104.04
1425.23
1462.08
1457.34
1454.62
1453.31
1452.02
1450.53
1448.84
1446.92
1444.74
1442.29
1439.51
1436.36
1432.81
1428.83
1424.34
1419.31
1413.67
1407.38
1400.36
1392.59
1383.39
1381.08
1283.92
1201.78
1152.95
1125.23
1107.77
1094.61
1082.46
1069.49
1055.05
1039.25
1022.49
1005.08
987.201
968.882
950.164
931.074
911.683
892.062
872.294
852.476
832.694
813.04
793.612
774.507
755.823
737.66
720.131
703.355
687.464
672.615
658.989
646.804
636.159
627.435
620.867
615.959
612.224
609.302
606.947
604.991
603.32
601.857
600.547
599.351
598.241
597.198
596.206
595.253
594.331
593.434
592.555
591.691
590.838
589.994
589.155
588.319
587.485
586.649
585.811
584.967
584.115
583.25
582.368
581.464
580.533
579.566
578.552
577.476
576.284
574.975
573.114
571.484
570.898
571.075
912.581
1148.93
1430.18
1461.44
1457.06
1454.54
1453.24
1451.95
1450.46
1448.76
1446.84
1444.66
1442.2
1439.43
1436.28
1432.74
1428.76
1424.28
1419.25
1413.62
1407.34
1400.36
1392.23
1388
1322.88
1236.44
1176.58
1141.45
1120.28
1105.69
1093.53
1081.38
1068.04
1053.28
1037.38
1020.69
1003.4
985.63
967.394
948.733
929.683
910.323
890.728
870.979
851.174
831.403
811.754
792.331
773.229
754.547
736.389
718.869
702.105
686.232
671.412
657.827
645.7
635.113
626.503
620.035
615.204
611.528
608.651
606.33
604.402
602.754
601.309
600.015
598.833
597.735
596.703
595.721
594.778
593.866
592.978
592.109
591.255
590.413
589.579
588.751
587.926
587.103
586.28
585.453
584.622
583.781
582.929
582.059
581.169
580.25
579.298
578.296
577.231
576.053
574.738
573.042
570.213
569.756
570.63
868.769
1194.06
1436.85
1461.25
1456.83
1454.48
1453.21
1451.92
1450.43
1448.73
1446.82
1444.65
1442.2
1439.44
1436.31
1432.78
1428.82
1424.36
1419.36
1413.76
1407.52
1400.46
1394.03
1366.23
1272.5
1200.13
1157.52
1132.77
1116.68
1104.21
1092.53
1080.12
1066.4
1051.45
1035.58
1019.03
1001.91
984.279
966.147
947.564
928.577
909.268
889.713
869.994
850.211
830.452
810.81
791.388
772.281
753.591
735.422
717.891
701.117
685.238
670.415
656.833
644.719
634.151
625.586
619.164
614.375
610.734
607.887
605.592
603.685
602.056
600.628
599.348
598.178
597.093
596.071
595.1
594.167
593.264
592.386
591.526
590.682
589.849
589.025
588.206
587.392
586.579
585.766
584.949
584.127
583.298
582.456
581.599
580.722
579.82
578.884
577.902
576.857
575.699
574.411
572.688
570.146
569.405
570.278
863.79
1352.6
1450.72
1461.46
1456.75
1454.47
1453.21
1451.93
1450.45
1448.76
1446.86
1444.71
1442.28
1439.54
1436.43
1432.94
1429.01
1424.6
1419.64
1414.09
1407.94
1400.48
1399.67
1309.21
1225.75
1174.59
1145.53
1127.62
1114.63
1103.21
1091.55
1078.81
1064.86
1049.89
1034.16
1017.8
1000.85
983.362
965.341
946.847
927.933
908.683
889.169
869.483
849.719
829.969
810.324
790.891
771.767
753.053
734.855
717.29
700.481
684.564
669.703
656.084
643.937
633.348
624.763
618.336
613.554
609.927
607.096
604.817
602.926
601.311
599.896
598.628
597.47
596.395
595.383
594.421
593.497
592.603
591.733
590.882
590.045
589.221
588.405
587.595
586.789
585.984
585.179
584.371
583.558
582.738
581.906
581.059
580.194
579.304
578.382
577.415
576.389
575.244
574.006
572.118
570.938
569.792
570.095
865.998
1292.72
1445.48
1461.51
1456.84
1454.51
1453.25
1451.98
1450.51
1448.85
1446.96
1444.84
1442.44
1439.73
1436.66
1433.21
1429.34
1424.98
1420.09
1414.62
1408.23
1405.5
1342.06
1253.52
1193.27
1158.83
1138.55
1124.78
1113.46
1102.42
1090.58
1077.62
1063.62
1048.77
1033.24
1017.08
1000.3
982.953
965.049
946.652
927.818
908.631
889.162
869.505
849.756
830.003
810.347
790.889
771.729
752.972
734.723
717.101
700.228
684.243
669.31
655.616
643.391
632.737
624.065
617.584
612.776
609.141
606.312
604.041
602.159
600.555
599.15
597.892
596.744
595.677
594.674
593.719
592.803
591.917
591.054
590.209
589.38
588.562
587.753
586.95
586.151
585.354
584.556
583.756
582.951
582.139
581.316
580.478
579.623
578.744
577.834
576.879
575.869
574.736
573.537
571.561
570.899
570.128
570.037
868.445
1128.28
1428.04
1461.39
1457.3
1454.65
1453.33
1452.07
1450.63
1448.99
1447.13
1445.04
1442.67
1440.01
1436.99
1433.6
1429.79
1425.51
1420.7
1415.26
1410.28
1384.93
1287
1213.88
1172.5
1149.29
1134.55
1123.22
1112.73
1101.73
1089.73
1076.7
1062.8
1048.15
1032.82
1016.87
1000.28
983.078
965.307
947.01
928.262
909.141
889.719
870.093
850.351
830.587
810.908
791.409
772.197
753.376
735.052
717.345
700.38
684.295
669.253
655.443
643.095
632.334
623.51
616.923
612.055
608.39
605.55
603.278
601.4
599.801
598.404
597.154
596.013
594.954
593.958
593.01
592.1
591.22
590.363
589.525
588.702
587.89
587.087
586.29
585.497
584.706
583.915
583.122
582.324
581.519
580.704
579.875
579.029
578.159
577.26
576.316
575.318
574.2
573.013
571.061
570.601
570.28
570.037
868.836
1094.17
1296.23
1448.55
1457.85
1454.85
1453.47
1452.21
1450.79
1449.18
1447.36
1445.3
1442.99
1440.38
1437.42
1434.1
1430.37
1426.18
1421.51
1415.7
1416.91
1323.16
1237.54
1187.06
1159.77
1143.7
1132.34
1122.42
1112.26
1101.19
1089.11
1076.16
1062.44
1048.03
1032.94
1017.2
1000.79
983.749
966.119
947.939
929.29
910.236
890.86
871.259
851.521
831.741
812.026
792.472
773.19
754.285
735.864
718.047
700.96
684.741
669.554
655.588
643.069
632.156
623.107
616.359
611.396
607.681
604.816
602.534
600.654
599.058
597.665
596.42
595.285
594.232
593.242
592.3
591.395
590.521
589.669
588.836
588.018
587.211
586.413
585.622
584.834
584.049
583.263
582.476
581.685
580.887
580.079
579.258
578.42
577.559
576.669
575.736
574.75
573.637
572.518
570.191
570.161
570.286
570.059
866.421
1129.76
1423.94
1460.79
1457.23
1454.8
1453.59
1452.38
1450.99
1449.42
1447.64
1445.64
1443.38
1440.83
1437.95
1434.72
1431.08
1427.01
1422.18
1420.9
1356.89
1263.38
1202.45
1169.81
1151.93
1140.5
1131.27
1122.09
1112
1100.86
1088.82
1076.03
1062.56
1048.42
1033.58
1018.06
1001.86
984.989
967.509
949.457
930.911
911.931
892.61
873.033
853.291
833.486
813.724
794.103
774.734
755.723
737.182
719.23
701.991
685.606
670.236
656.071
643.333
632.222
622.869
615.901
610.805
607.016
604.113
601.811
599.924
598.327
596.936
595.695
594.564
593.516
592.53
591.593
590.693
589.823
588.976
588.147
587.333
586.531
585.737
584.95
584.167
583.387
582.606
581.824
581.039
580.247
579.445
578.632
577.801
576.949
576.068
575.143
574.17
573.064
571.85
571.919
570.741
570.286
570.069
822.884
1191.28
1439.13
1461.64
1457.14
1454.93
1453.77
1452.6
1451.24
1449.71
1447.98
1446.03
1443.84
1441.37
1438.59
1435.45
1431.92
1427.93
1424.19
1403.31
1295.06
1218.79
1178.92
1158.66
1147.16
1138.89
1130.99
1122.1
1111.95
1100.79
1088.88
1076.34
1063.17
1049.31
1034.75
1019.47
1003.48
986.804
969.491
951.582
933.149
914.254
894.988
875.432
855.686
835.854
816.034
796.331
776.857
757.721
739.035
720.919
703.498
686.912
671.324
656.919
643.915
632.558
622.797
615.54
610.272
606.389
603.436
601.109
599.211
597.609
596.218
594.979
593.851
592.806
591.824
590.891
589.995
589.128
588.285
587.459
586.649
585.85
585.061
584.277
583.498
582.722
581.946
581.169
580.388
579.602
578.806
577.999
577.175
576.331
575.458
574.543
573.569
572.586
570.536
572.906
571.931
570.447
570.067
992.162
1418.34
1462.69
1458.87
1456.23
1455.04
1454.01
1452.85
1451.54
1450.05
1448.38
1446.5
1444.38
1442
1439.32
1436.28
1432.9
1428.66
1431.14
1332.26
1240.14
1188.92
1164.12
1151.82
1144.59
1138.43
1131.22
1122.33
1112.09
1101
1089.32
1077.1
1064.26
1050.72
1036.43
1021.41
1005.66
989.205
972.082
954.338
936.027
917.228
898.025
878.497
858.749
838.879
818.99
799.194
779.596
760.313
741.459
723.151
705.518
688.699
672.853
658.165
644.848
633.172
623.082
615.413
609.866
605.825
602.792
600.427
598.512
596.904
595.511
594.272
593.146
592.104
591.125
590.195
589.301
588.437
587.597
586.775
585.967
585.171
584.384
583.604
582.829
582.056
581.284
580.511
579.734
578.953
578.162
577.36
576.544
575.707
574.84
573.944
572.949
571.867
573.031
574.655
573.461
570.762
570.059
1049.34
1442.56
1466.31
1458.53
1456.14
1455.21
1454.27
1453.15
1451.88
1450.45
1448.84
1447.03
1444.99
1442.7
1440.13
1437.22
1433.88
1432.22
1382.63
1272.76
1203.72
1170.48
1155.31
1148.15
1143.71
1138.75
1131.71
1122.68
1112.43
1101.53
1090.18
1078.32
1065.83
1052.62
1038.64
1023.91
1008.43
992.215
975.302
957.742
939.578
920.892
901.756
882.263
862.514
842.601
822.636
802.733
782.998
763.549
744.501
725.974
708.095
691.006
674.863
659.849
646.173
634.106
623.681
615.521
609.615
605.356
602.202
599.776
597.831
596.21
594.813
593.574
592.45
591.409
590.433
589.504
588.613
587.752
586.913
586.093
585.288
584.494
583.71
582.932
582.159
581.389
580.621
579.851
579.079
578.301
577.515
576.719
575.908
575.077
574.223
573.292
572.578
570.442
574.654
576.835
575.286
571.222
570.05
1073.91
1437.93
1464.99
1458.71
1456.38
1455.46
1454.55
1453.47
1452.25
1450.89
1449.35
1447.62
1445.67
1443.49
1441.03
1438.3
1434.74
1438.85
1323.15
1229.45
1181.6
1160.12
1150.91
1146.98
1144.09
1139.47
1132.24
1123.09
1112.98
1102.41
1091.46
1080
1067.88
1055.02
1041.39
1026.98
1011.79
995.859
979.188
961.834
943.84
925.283
906.232
886.784
867.031
847.076
827.032
807.009
787.116
767.477
748.211
729.435
711.283
693.89
677.41
662.024
647.938
635.418
624.591
615.843
609.509
604.984
601.676
599.165
597.175
595.532
594.126
592.885
591.76
590.721
589.746
588.82
587.93
587.071
586.234
585.416
584.612
583.82
583.037
582.261
581.491
580.723
579.957
579.19
578.421
577.647
576.866
576.074
575.269
574.443
573.592
572.785
570.973
573.083
576.842
579.186
576.819
571.735
570.046
958.237
1430.23
1466.99
1459.23
1456.61
1455.72
1454.86
1453.83
1452.67
1451.37
1449.91
1448.26
1446.42
1444.35
1442.03
1439.36
1438.14
1391.45
1274.22
1202.56
1169.5
1155.35
1149.82
1147.65
1145.18
1140.24
1132.71
1123.59
1113.8
1103.69
1093.19
1082.14
1070.41
1057.94
1044.69
1030.63
1015.78
1000.16
983.768
966.649
948.859
930.449
911.507
892.113
872.364
852.372
832.243
812.087
792.027
772.177
752.664
733.609
715.145
697.406
680.549
664.749
650.206
637.171
625.871
616.371
609.514
604.681
601.199
598.589
596.545
594.873
593.453
592.205
591.079
590.04
589.066
588.141
587.253
586.394
585.559
584.742
583.939
583.148
582.367
581.592
580.823
580.057
579.294
578.529
577.762
576.992
576.214
575.427
574.626
573.816
572.932
571.981
575.095
577.262
579.68
581.696
578.356
572.275
570.05
941.027
1351.01
1458.36
1460.47
1457.24
1456.04
1455.18
1454.23
1453.13
1451.9
1450.52
1448.97
1447.23
1445.29
1443.13
1440.31
1444.4
1332.57
1236.15
1186.21
1163.83
1154.47
1151.07
1149.42
1146.46
1140.87
1133.14
1124.28
1114.97
1105.38
1095.35
1084.74
1073.44
1061.38
1048.54
1034.9
1020.43
1005.16
989.092
972.248
954.689
936.461
917.648
898.326
878.6
858.57
838.347
818.054
797.807
777.727
757.941
738.577
719.764
701.644
684.366
668.1
653.047
639.441
627.564
617.427
609.819
604.513
600.781
598.046
595.938
594.232
592.793
591.536
590.406
589.366
588.392
587.468
586.581
585.723
584.888
584.071
583.269
582.479
581.699
580.925
580.158
579.393
578.63
577.868
577.104
576.336
575.561
574.779
573.985
573.138
572.559
570.042
577.714
581.618
583.14
584.461
579.91
572.824
570.059
888.457
1140.07
1435.36
1463.02
1458.41
1456.42
1455.53
1454.65
1453.63
1452.47
1451.18
1449.73
1448.11
1446.3
1444.23
1443.21
1405.44
1284.71
1210.95
1176.95
1162.13
1156.04
1153.63
1151.51
1147.57
1141.37
1133.66
1125.26
1116.53
1107.47
1097.95
1087.8
1076.95
1065.36
1052.99
1039.8
1025.77
1010.9
995.2
978.689
961.399
943.395
924.738
905.519
885.824
865.765
845.458
825.019
804.568
784.238
764.151
744.443
725.245
706.697
688.952
672.174
656.556
642.323
629.767
618.998
610.464
604.525
600.446
597.541
595.352
593.606
592.146
590.878
589.742
588.699
587.724
586.8
585.913
585.056
584.221
583.405
582.603
581.813
581.033
580.26
579.493
578.729
577.968
577.207
576.445
575.679
574.909
574.126
573.34
572.554
571.348
574.384
580.996
585.655
586.904
587.506
581.487
573.373
570.072
872.806
1143.76
1434.6
1463.13
1458.84
1456.81
1455.93
1455.11
1454.15
1453.08
1451.88
1450.54
1449.05
1447.39
1445.24
1448.98
1342.42
1245.13
1194.74
1172.39
1162.83
1158.82
1156.47
1153.34
1148.4
1141.88
1134.46
1126.61
1118.48
1109.97
1100.95
1091.31
1080.97
1069.9
1058.04
1045.37
1031.84
1017.44
1002.16
986.038
969.077
951.34
932.887
913.794
894.16
874.093
853.699
833.107
812.446
791.84
771.424
751.336
731.711
712.692
694.428
677.081
660.841
645.923
632.603
621.11
611.585
604.806
600.239
597.09
594.789
592.993
591.51
590.229
589.086
588.04
587.063
586.138
585.251
584.393
583.559
582.742
581.941
581.151
580.37
579.598
578.83
578.067
577.306
576.546
575.785
575.023
574.25
573.492
572.633
572.077
570.808
578.186
584.732
589.511
590.762
590.793
583.137
573.917
570.088
877.375
1114.78
1400.02
1459.01
1459.79
1457.44
1456.38
1455.58
1454.71
1453.73