/*--------------------------------*- C++ -*----------------------------------*\
  =========                 |
  \\      /  F ield         | OpenFOAM: The Open Source CFD Toolbox
   \\    /   O peration     | Website:  https://openfoam.org
    \\  /    A nd           | Version:  9
     \\/     M anipulation  |
\*---------------------------------------------------------------------------*/
FoamFile
{
    format      ascii;
    class       volVectorField;
    location    "3000";
    object      U;
}
// * * * * * * * * * * * * * * * * * * * * * * * * * * * * * * * * * * * * * //

dimensions      [0 1 -1 0 0 0 0];

internalField   nonuniform List<vector> 
13446
(
(1.15162 -2.08966e-05 -1.28596e-19)
(1.15162 -2.04409e-05 8.20301e-20)
(1.15166 -6.0562e-05 5.49026e-20)
(1.15162 -1.99723e-05 -5.21718e-20)
(1.15166 -5.93637e-05 -1.58209e-19)
(1.15169 -0.00010056 3.89731e-20)
(1.15171 -0.00014318 4.24728e-20)
(1.15173 -0.000186774 -5.52352e-20)
(1.15162 -1.94907e-05 5.21802e-20)
(1.15165 -5.81127e-05 1.72865e-19)
(1.15168 -9.83915e-05 0)
(1.1517 -0.000140037 9.99573e-22)
(1.15172 -0.000182644 4.66692e-20)
(1.15173 -0.000226521 6.09951e-20)
(1.15162 -1.90007e-05 -3.63498e-20)
(1.15165 -5.68112e-05 -6.84637e-20)
(1.15167 -9.61483e-05 -1.56834e-23)
(1.15169 -0.000136794 -4.42772e-20)
(1.15171 -0.000178386 -4.71917e-20)
(1.15172 -0.000221207 6.41456e-20)
(1.15172 -0.000265528 0)
(1.15161 -1.84989e-05 0)
(1.15164 -5.54626e-05 -9.28729e-20)
(1.15167 -9.38339e-05 1.08512e-20)
(1.15168 -0.000133454 0)
(1.1517 -0.000174003 0)
(1.1517 -0.000215738 -1.05188e-19)
(1.15171 -0.000258923 -1.41623e-20)
(1.15171 -0.000303727 1.50165e-20)
(1.15171 -0.000350326 8.185e-21)
(1.15171 -0.000398918 -8.67704e-21)
(1.1517 -0.000449709 2.77573e-20)
(1.15169 -0.000502913 5.04583e-20)
(1.15167 -0.000558761 -3.3628e-20)
(1.15165 -0.000617496 3.07488e-20)
(1.15163 -0.000679378 3.30137e-20)
(1.1516 -0.000744689 7.26541e-21)
(1.15157 -0.000813731 -6.22686e-20)
(1.15154 -0.000886827 6.0065e-20)
(1.1515 -0.000964328 9.58457e-21)
(1.15146 -0.00104662 -3.52039e-20)
(1.15141 -0.0011341 -1.75312e-20)
(1.15136 -0.00122723 0)
(1.15131 -0.00132649 0)
(1.15124 -0.00143241 3.82098e-20)
(1.15118 -0.00154555 -5.07547e-20)
(1.1511 -0.00166655 1.41607e-20)
(1.15102 -0.00179607 -5.88013e-21)
(1.15094 -0.00193487 0)
(1.15084 -0.00208374 0)
(1.15074 -0.00224356 -2.23313e-20)
(1.15063 -0.00241528 2.54291e-20)
(1.15161 -1.79884e-05 0)
(1.15164 -5.40681e-05 1.58339e-19)
(1.15166 -9.14501e-05 -2.41559e-23)
(1.15167 -0.000130023 6.00942e-20)
(1.15169 -0.000169504 1.27728e-20)
(1.15169 -0.000210125 4.02577e-20)
(1.1517 -0.000252147 -5.8829e-20)
(1.1517 -0.000295735 -7.86971e-21)
(1.15169 -0.000341058 -2.5621e-20)
(1.15169 -0.00038831 0)
(1.15168 -0.000437692 9.88704e-21)
(1.15166 -0.000489413 -2.11959e-20)
(1.15165 -0.000543695 1.03217e-19)
(1.15163 -0.000600776 -4.93253e-20)
(1.1516 -0.00066091 -2.68628e-20)
(1.15158 -0.000724366 7.54914e-21)
(1.15154 -0.00079144 -1.71128e-20)
(1.15151 -0.000862445 -2.6379e-20)
(1.15147 -0.000937722 9.97617e-21)
(1.15142 -0.00101764 -5.36299e-20)
(1.15138 -0.0011026 2.94659e-20)
(1.15132 -0.00119303 2.75649e-22)
(1.15126 -0.00128941 2.97529e-20)
(1.1512 -0.00139224 -7.87297e-21)
(1.15113 -0.00150209 0)
(1.15105 -0.00161955 -2.01535e-20)
(1.15096 -0.00174529 2.17485e-20)
(1.15087 -0.00188003 3.1369e-20)
(1.15077 -0.00202454 -6.71326e-21)
(1.15067 -0.00217967 3.02406e-20)
(1.15055 -0.00234635 -3.38352e-20)
(1.15042 -0.00252559 -4.35381e-20)
(1.15029 -0.00271848 2.09406e-20)
(1.11035 -0.0589063 -7.397e-21)
(1.10749 -0.0636019 0)
(1.10449 -0.0687207 0)
(1.10138 -0.0743121 -4.50597e-20)
(1.09816 -0.0804378 0)
(1.09486 -0.0871622 -5.68973e-20)
(1.0915 -0.0945691 2.99143e-20)
(1.08813 -0.102745 0)
(1.08483 -0.111786 -9.65996e-21)
(1.08166 -0.121826 2.08424e-20)
(1.07876 -0.13298 -5.85107e-20)
(1.07629 -0.145406 -5.10779e-20)
(1.07449 -0.159213 0)
(1.07364 -0.174637 6.52487e-21)
(1.07425 -0.191561 1.5466e-20)
(1.07659 -0.210491 9.7078e-21)
(1.0819 -0.230321 2.21614e-20)
(1.0897 -0.252826 -3.36646e-20)
(1.10351 -0.273107 -1.22829e-22)
(1.11846 -0.298584 4.73939e-21)
(1.14645 -0.31158 -2.14681e-21)
(1.16478 -0.340013 2.19974e-21)
(1.21695 -0.329803 0)
(1.21311 -0.364696 -5.09986e-20)
(1.33138 -0.316402 -4.06857e-21)
(1.07377 -0.325577 9.85699e-20)
(1.15161 -1.74693e-05 -1.99566e-20)
(1.15164 -5.26355e-05 -6.45591e-20)
(1.15165 -8.90037e-05 0)
(1.15167 -0.000126503 -4.88212e-20)
(1.15168 -0.00016489 -1.32028e-20)
(1.15168 -0.000204378 7.07544e-20)
(1.15169 -0.00024521 5.96071e-20)
(1.15168 -0.000287553 8.14369e-21)
(1.15168 -0.000331573 6.09099e-20)
(1.15167 -0.000377455 -9.46921e-21)
(1.15166 -0.000425396 1.00384e-20)
(1.15165 -0.000475598 0)
(1.15163 -0.000528278 -1.07314e-19)
(1.15161 -0.000583665 6.22324e-21)
(1.15158 -0.000642004 3.55282e-20)
(1.15155 -0.000703559 3.12061e-20)
(1.15152 -0.000768613 4.19341e-20)
(1.15148 -0.000837471 -9.10873e-21)
(1.15144 -0.000910463 3.08256e-20)
(1.15139 -0.000987944 3.31128e-20)
(1.15134 -0.0010703 0)
(1.15128 -0.00115796 0)
(1.15122 -0.00125137 -5.27326e-20)
(1.15115 -0.00135102 -4.22112e-20)
(1.15108 -0.00145747 9.55347e-21)
(1.151 -0.00157128 4.97164e-21)
(1.15091 -0.00169311 5.63853e-21)
(1.15081 -0.00182364 -1.87469e-20)
(1.15071 -0.00196364 2.21962e-20)
(1.1506 -0.00211393 4.09742e-20)
(1.15047 -0.00227539 -8.7835e-21)
(1.15034 -0.00244902 -6.55984e-22)
(1.1502 -0.00263585 0)
(1.15005 -0.00283705 -8.58264e-22)
(1.11138 -0.053016 0)
(1.10851 -0.057232 8.38622e-21)
(1.10549 -0.0618236 -8.92372e-21)
(1.10232 -0.0668348 -3.18489e-20)
(1.09901 -0.0723176 3.42871e-20)
(1.09557 -0.0783337 -6.79216e-21)
(1.09201 -0.084949 6.49329e-20)
(1.08836 -0.0922441 -4.26729e-20)
(1.08467 -0.100314 -2.91028e-20)
(1.08097 -0.109264 4.2469e-20)
(1.07736 -0.119231 3.54445e-20)
(1.07394 -0.130345 6.02409e-20)
(1.07087 -0.142775 -4.35885e-21)
(1.06838 -0.156664 -2.30123e-20)
(1.06673 -0.172266 -3.9521e-20)
(1.06643 -0.189539 -3.66829e-20)
(1.06778 -0.208999 4.05648e-20)
(1.07203 -0.229703 -2.25712e-20)
(1.07879 -0.253344 1.66941e-20)
(1.09172 -0.275357 -9.38448e-22)
(1.10604 -0.302774 4.02425e-21)
(1.13417 -0.318368 -9.30205e-22)
(1.15296 -0.349459 0)
(1.20749 -0.341283 5.14998e-21)
(1.20529 -0.379364 4.65935e-20)
(1.3283 -0.32891 4.15372e-21)
(1.074 -0.342243 -9.35885e-20)
(1.15161 -1.69429e-05 0)
(1.15163 -5.11623e-05 -1.02109e-19)
(1.15165 -8.6494e-05 6.01924e-20)
(1.15166 -0.0001229 0)
(1.15167 -0.00016017 0)
(1.15167 -0.000198497 -7.21839e-20)
(1.15167 -0.000238117 -1.84155e-22)
(1.15167 -0.00027919 1.66196e-20)
(1.15167 -0.00032188 7.09803e-22)
(1.15166 -0.000366365 0)
(1.15164 -0.000412834 0)
(1.15163 -0.000461485 -1.15137e-20)
(1.15161 -0.000512527 6.10552e-20)
(1.15158 -0.00056618 6.81751e-21)
(1.15156 -0.000622683 -3.61988e-20)
(1.15153 -0.000682291 -3.16536e-20)
(1.15149 -0.000745277 8.92665e-21)
(1.15145 -0.000811934 -9.46339e-21)
(1.15141 -0.000882581 1.01151e-21)
(1.15136 -0.000957561 0)
(1.1513 -0.00103725 -2.60362e-20)
(1.15124 -0.00112205 0)
(1.15118 -0.00121241 3.1092e-20)
(1.15111 -0.00130879 2.55317e-20)
(1.15103 -0.00141173 -2.98614e-20)
(1.15095 -0.00152179 -5.54983e-21)
(1.15086 -0.00163958 5.8842e-21)
(1.15076 -0.00176579 0)
(1.15065 -0.00190113 -6.01327e-20)
(1.15053 -0.00204641 -3.31581e-20)
(1.1504 -0.00220249 0)
(1.15027 -0.00237031 4.77545e-20)
(1.15012 -0.0025509 -5.78094e-21)
(1.14995 -0.00274536 1.93944e-20)
(1.14978 -0.00295489 -3.09809e-20)
(1.14959 -0.0031808 -2.61697e-20)
(1.11259 -0.0476174 -8.02005e-20)
(1.10974 -0.0513969 -1.47367e-20)
(1.10673 -0.0555086 -8.91207e-21)
(1.10356 -0.0599924 -3.04496e-20)
(1.10022 -0.0648913 4.32043e-20)
(1.09671 -0.0702558 -3.82462e-20)
(1.09305 -0.0761491 -1.3714e-20)
(1.08924 -0.0826392 -8.15728e-21)
(1.08531 -0.0898108 4.33607e-20)
(1.08128 -0.0977596 3.87478e-20)
(1.07721 -0.106597 -3.17696e-20)
(1.07315 -0.116462 -1.10551e-19)
(1.06922 -0.127501 0)
(1.06554 -0.139896 6.45315e-20)
(1.06234 -0.153823 2.2734e-20)
(1.05986 -0.169544 3.24e-20)
(1.0586 -0.187097 0)
(1.05888 -0.207017 -2.89768e-20)
(1.06195 -0.228526 -4.45708e-21)
(1.0675 -0.253247 -1.62927e-20)
(1.07931 -0.27698 1.83688e-21)
(1.09274 -0.30642 -4.12263e-21)
(1.12073 -0.324805 1.51419e-23)
(1.13977 -0.358868 0)
(1.19663 -0.353149 0)
(1.196 -0.394966 0)
(1.32435 -0.342188 0)
(1.07275 -0.360037 0)
(1.15161 -1.64076e-05 0)
(1.15163 -4.96513e-05 8.06293e-20)
(1.15164 -8.39286e-05 1.31846e-20)
(1.15165 -0.000119222 6.63106e-20)
(1.15166 -0.000155349 1.07258e-22)
(1.15166 -0.000192498 1.48011e-22)
(1.15166 -0.000230881 -1.60253e-20)
(1.15166 -0.000270661 -8.72376e-21)
(1.15165 -0.000311992 9.94516e-21)
(1.15164 -0.000355052 0)
(1.15163 -0.000400022 0)
(1.15161 -0.00044709 0)
(1.15159 -0.000496458 -1.29796e-20)
(1.15156 -0.000548342 6.6868e-21)
(1.15153 -0.000602971 1.52229e-20)
(1.1515 -0.000660588 -8.18919e-21)
(1.15146 -0.000721457 4.60773e-20)
(1.15142 -0.000785862 -5.02423e-20)
(1.15138 -0.000854108 -4.34728e-20)
(1.15133 -0.000926528 0)
(1.15127 -0.00100348 2.64421e-20)
(1.15121 -0.00108535 0)
(1.15114 -0.00117258 0)
(1.15107 -0.00126561 3.68545e-20)
(1.15099 -0.00136495 3.99735e-20)
(1.1509 -0.00147114 -5.78804e-21)
(1.1508 -0.00158479 3.15979e-20)
(1.1507 -0.00170654 0)
(1.15059 -0.00183709 3.09728e-20)
(1.15047 -0.00197722 0)
(1.15033 -0.00212775 0)
(1.15019 -0.00228959 -2.18053e-20)
(1.15004 -0.00246373 0)
(1.14987 -0.00265124 3.55769e-20)
(1.14969 -0.00285328 -8.58688e-21)
(1.14949 -0.0030711 4.40971e-20)
(1.14928 -0.00330606 -1.09482e-20)
(1.12742 -0.027167 3.46465e-20)
(1.12552 -0.0292805 1.2583e-20)
(1.12349 -0.0315608 3.02096e-20)
(1.12132 -0.0340226 2.56635e-20)
(1.119 -0.0366831 -6.60358e-22)
(1.11654 -0.0395613 1.06049e-20)
(1.11391 -0.0426787 3.7887e-20)
(1.11112 -0.0460625 1.27022e-19)
(1.10815 -0.049739 0)
(1.10501 -0.0537427 3.72732e-20)
(1.10169 -0.0581107 8.28657e-20)
(1.09818 -0.0628897 0)
(1.09449 -0.0681281 5.19538e-20)
(1.09061 -0.0738902 0)
(1.08656 -0.0802465 2.58955e-20)
(1.08234 -0.0872791 -3.94798e-20)
(1.07799 -0.0950912 6.51366e-20)
(1.07354 -0.103794 2.51203e-20)
(1.06904 -0.113534 9.97088e-21)
(1.06459 -0.124461 -7.47971e-21)
(1.06029 -0.136779 7.95499e-21)
(1.05637 -0.150687 -3.64481e-20)
(1.05304 -0.166475 9.39516e-21)
(1.05079 -0.184239 -9.97241e-21)
(1.04992 -0.204533 0)
(1.0517 -0.226755 -4.28196e-20)
(1.05587 -0.252497 3.64527e-20)
(1.06634 -0.277916 0)
(1.07859 -0.309422 -1.03562e-21)
(1.10614 -0.330761 -1.61225e-21)
(1.12504 -0.368123 2.53197e-21)
(1.18422 -0.36531 -2.58627e-21)
(1.1851 -0.411589 0)
(1.31977 -0.356483 6.06177e-20)
(1.07049 -0.379767 -4.96758e-21)
(1.15161 -1.58671e-05 8.87806e-20)
(1.15163 -4.81075e-05 1.20313e-20)
(1.15164 -8.13062e-05 -6.34419e-20)
(1.15165 -0.000115467 -5.4e-20)
(1.15165 -0.000150436 1.46027e-20)
(1.15165 -0.000186379 1.57637e-22)
(1.15165 -0.000223506 -8.38349e-20)
(1.15165 -0.00026197 9.03278e-21)
(1.15164 -0.00030192 -8.89246e-21)
(1.15163 -0.00034353 0)
(1.15161 -0.000386971 0)
(1.15159 -0.000432427 -1.23745e-20)
(1.15157 -0.000480092 1.31181e-20)
(1.15154 -0.000530172 -2.91842e-20)
(1.15151 -0.000582887 -3.18559e-20)
(1.15148 -0.000638473 0)
(1.15144 -0.000697182 -3.74256e-20)
(1.1514 -0.000759286 4.10933e-20)
(1.15135 -0.00082508 0)
(1.1513 -0.000894881 0)
(1.15124 -0.000969033 -3.52486e-20)
(1.15117 -0.00104791 1.54285e-20)
(1.1511 -0.00113193 -4.28841e-20)
(1.15103 -0.00122152 -7.58248e-20)
(1.15094 -0.00131717 2.13327e-20)
(1.15085 -0.00141941 0)
(1.15075 -0.0015288 -5.24177e-20)
(1.15065 -0.00164597 0)
(1.15053 -0.0017716 0)
(1.1504 -0.00190643 3.71702e-20)
(1.15027 -0.00205126 0)
(1.15012 -0.00220696 2.93793e-20)
(1.14996 -0.00237448 -6.32066e-21)
(1.14979 -0.00255484 -2.88413e-20)
(1.1496 -0.00274917 -9.11782e-22)
(1.14939 -0.00295867 -9.59672e-21)
(1.14917 -0.00318464 7.2741e-20)
(1.14894 -0.0034285 -1.78903e-20)
(1.14868 -0.00369177 1.98659e-20)
(1.12841 -0.0242796 -5.24207e-20)
(1.12658 -0.0261734 -3.56427e-20)
(1.12461 -0.0282163 1.42444e-20)
(1.12251 -0.0304208 -1.40288e-20)
(1.12027 -0.0328027 -3.50137e-20)
(1.11788 -0.035378 -5.1867e-20)
(1.11532 -0.0381666 -7.88836e-22)
(1.1126 -0.0411902 -3.89233e-20)
(1.1097 -0.0444728 -5.87609e-20)
(1.10662 -0.0480419 -8.80692e-21)
(1.10335 -0.0519321 -1.85467e-20)
(1.09988 -0.0561804 -5.36594e-20)
(1.09621 -0.0608339 6.35544e-20)
(1.09233 -0.0659422 -1.36804e-20)
(1.08825 -0.0715647 -8.21852e-21)
(1.08395 -0.0777712 -1.71829e-20)
(1.07946 -0.0846529 7.12221e-20)
(1.07479 -0.0923088 -9.11899e-20)
(1.06996 -0.10086 -3.67448e-20)
(1.06503 -0.110444 4.16419e-20)
(1.06006 -0.121236 0)
(1.05516 -0.133443 -3.61367e-20)
(1.0505 -0.147277 7.08958e-21)
(1.04631 -0.163058 3.28528e-20)
(1.04302 -0.18095 -4.62412e-20)
(1.04094 -0.201534 -5.61674e-21)
(1.04132 -0.224378 4.95669e-20)
(1.04396 -0.251052 -2.02476e-20)
(1.05284 -0.278088 0)
(1.06361 -0.311676 -1.51636e-20)
(1.09035 -0.336102 1.04467e-20)
(1.10863 -0.377065 0)
(1.17003 -0.377656 2.01788e-20)
(1.17206 -0.429278 0)
(1.31384 -0.371833 -2.95188e-20)
(1.0685 -0.402516 0)
(1.15161 -1.53208e-05 -1.93504e-19)
(1.15162 -4.65333e-05 -1.24433e-20)
(1.15163 -7.86356e-05 0)
(1.15164 -0.000111644 0)
(1.15165 -0.000145431 0)
(1.15165 -0.000180151 1.61921e-20)
(1.15164 -0.000216 5.13104e-20)
(1.15164 -0.000253125 -9.35595e-21)
(1.15163 -0.000291674 2.06798e-20)
(1.15161 -0.000331807 -2.16064e-20)
(1.1516 -0.000373694 1.15639e-20)
(1.15158 -0.000417512 1.28327e-20)
(1.15155 -0.000463443 -4.13805e-20)
(1.15152 -0.000511687 6.75929e-20)
(1.15149 -0.000562454 -8.68023e-21)
(1.15146 -0.00061597 3.61562e-20)
(1.15142 -0.000672477 0)
(1.15137 -0.000732234 4.35622e-20)
(1.15132 -0.000795524 0)
(1.15127 -0.000862651 0)
(1.15121 -0.000933945 2.86437e-20)
(1.15114 -0.00100976 8.20328e-21)
(1.15107 -0.0010905 2.64575e-20)
(1.15099 -0.00117658 7.89457e-20)
(1.1509 -0.00126845 -2.17209e-20)
(1.15081 -0.00136663 0)
(1.15071 -0.00147167 2.70087e-20)
(1.1506 -0.00158415 -7.85615e-21)
(1.15048 -0.00170474 -2.62448e-20)
(1.15035 -0.00183414 9.09597e-22)
(1.1502 -0.00197312 2.17478e-20)
(1.15005 -0.00212251 -3.0072e-20)
(1.14989 -0.00228323 6.60279e-21)
(1.14971 -0.00245627 7.8929e-21)
(1.14951 -0.00264269 1.67325e-20)
(1.1493 -0.00284365 -2.9926e-20)
(1.14907 -0.00306041 6.25519e-21)
(1.14883 -0.00329431 1.20224e-20)
(1.14856 -0.00354683 -4.54008e-22)
(1.14827 -0.00381952 3.07586e-20)
(1.14796 -0.00411408 -2.67062e-20)
(1.13658 -0.0148432 1.04779e-20)
(1.13534 -0.016008 -5.63913e-20)
(1.13402 -0.017263 -5.33611e-20)
(1.13259 -0.018615 -3.04424e-20)
(1.13106 -0.0200718 -3.36148e-20)
(1.12941 -0.021642 0)
(1.12765 -0.0233353 0)
(1.12576 -0.0251612 0)
(1.12374 -0.0271318 0)
(1.12158 -0.0292604 -3.24264e-20)
(1.11926 -0.0315609 -2.84505e-20)
(1.11679 -0.0340495 7.5261e-20)
(1.11415 -0.0367464 -4.95707e-20)
(1.11134 -0.0396713 1.43836e-20)
(1.10834 -0.0428497 -1.52997e-20)
(1.10514 -0.0463094 3.65305e-20)
(1.10174 -0.0500841 1.05633e-20)
(1.09813 -0.0542083 4.79265e-20)
(1.0943 -0.0587275 -6.44035e-20)
(1.09025 -0.0636942 -6.07459e-20)
(1.08596 -0.0691694 6.0109e-20)
(1.08143 -0.0752226 -5.6879e-22)
(1.07667 -0.0819439 -3.17341e-20)
(1.07169 -0.0894281 4.75333e-20)
(1.0665 -0.0977981 -5.58597e-20)
(1.06113 -0.107207 6.26796e-20)
(1.05565 -0.117833 -7.00651e-20)
(1.05014 -0.129885 2.71629e-20)
(1.04475 -0.143602 4.01347e-20)
(1.03967 -0.159314 -2.1246e-20)
(1.03532 -0.177262 2.2704e-20)
(1.03198 -0.198044 1.29751e-20)
(1.03087 -0.221383 6.37772e-21)
(1.03181 -0.248873 -6.73497e-21)
(1.03888 -0.277436 -3.10069e-20)
(1.04778 -0.313046 2.08352e-20)
(1.0733 -0.340664 -7.60241e-21)
(1.09052 -0.385528 -1.77477e-21)
(1.15384 -0.390066 -7.28752e-21)
(1.15663 -0.447933 -4.15382e-21)
(1.30657 -0.388429 -2.88018e-20)
(1.06564 -0.429088 0)
(1.15161 -1.47678e-05 9.35026e-20)
(1.15162 -4.49285e-05 0)
(1.15163 -7.59165e-05 1.3712e-20)
(1.15164 -0.000107756 -2.91772e-20)
(1.15164 -0.000140341 1.55183e-20)
(1.15164 -0.000173819 0)
(1.15163 -0.000208369 0)
(1.15162 -0.000244137 3.87448e-20)
(1.15161 -0.000281263 -4.10984e-20)
(1.1516 -0.0003199 -5.64116e-20)
(1.15158 -0.000360209 1.19893e-20)
(1.15156 -0.00040236 1.33121e-20)
(1.15153 -0.000446528 -1.45951e-20)
(1.15151 -0.000492905 -3.0855e-20)
(1.15147 -0.000541692 3.36907e-20)
(1.15144 -0.000593102 -3.6865e-20)
(1.15139 -0.000647367 -3.07652e-20)
(1.15135 -0.000704734 -6.68677e-20)
(1.1513 -0.000765473 1.21217e-20)
(1.15124 -0.000829875 -2.0527e-20)
(1.15118 -0.000898255 -1.50794e-20)
(1.15111 -0.000970952 -3.71867e-22)
(1.15103 -0.00104834 9.04988e-21)
(1.15095 -0.00113082 8.28016e-22)
(1.15086 -0.00121885 0)
(1.15077 -0.00131288 0)
(1.15066 -0.00141346 2.1448e-20)
(1.15055 -0.00152116 1.59534e-20)
(1.15042 -0.00163659 1.73888e-20)
(1.15029 -0.00176043 -7.01834e-20)
(1.15014 -0.00189342 -2.79563e-20)
(1.14999 -0.00203636 3.16219e-20)
(1.14981 -0.00219012 -2.13643e-20)
(1.14963 -0.00235565 4.86581e-22)
(1.14943 -0.00253397 2.76869e-20)
(1.14921 -0.00272619 7.07548e-20)
(1.14898 -0.0029335 -3.47495e-20)
(1.14872 -0.00315722 6.71135e-21)
(1.14845 -0.00339873 -1.47132e-20)
(1.14815 -0.00365954 8.05535e-21)
(1.14783 -0.00394127 3.81341e-20)
(1.14748 -0.00424567 4.32443e-20)
(1.14711 -0.00457459 2.38821e-20)
(1.1467 -0.00493005 2.78576e-20)
(1.14626 -0.00531422 -2.26885e-20)
(1.1361 -0.014217 -7.65149e-22)
(1.13483 -0.0153346 1.17062e-20)
(1.13347 -0.0165392 2.63698e-20)
(1.132 -0.0178377 3.10429e-20)
(1.13043 -0.0192375 9.34027e-21)
(1.12874 -0.0207468 3.17337e-20)
(1.12693 -0.0223748 0)
(1.12498 -0.0241318 0)
(1.1229 -0.026029 0)
(1.12068 -0.0280792 0)
(1.11829 -0.0302968 -1.21791e-21)
(1.11575 -0.0326975 -5.60732e-20)
(1.11303 -0.0353001 1.15135e-19)
(1.11012 -0.038126 0)
(1.10702 -0.0411982 0)
(1.10372 -0.044544 -2.74465e-20)
(1.1002 -0.0481978 -2.15803e-20)
(1.09645 -0.0521941 -2.35899e-20)
(1.09247 -0.0565769 -2.78458e-20)
(1.08823 -0.0613987 7.72453e-20)
(1.08374 -0.0667163 -7.94263e-20)
(1.07899 -0.0726037 5.10432e-20)
(1.07397 -0.0791482 -4.66423e-20)
(1.06868 -0.0864482 -6.60173e-20)
(1.06313 -0.0946289 7.11451e-20)
(1.05734 -0.103839 -8.07296e-20)
(1.05135 -0.11426 9.87302e-20)
(1.04524 -0.126116 -2.04164e-20)
(1.03912 -0.139666 -4.18318e-22)
(1.03316 -0.155253 6.35203e-20)
(1.02772 -0.173167 -6.94978e-20)
(1.02308 -0.194041 1.43762e-20)
(1.02038 -0.217756 7.31601e-21)
(1.01949 -0.245934 -3.25213e-20)
(1.02449 -0.275859 1.8979e-20)
(1.03118 -0.313443 -2.61924e-20)
(1.05501 -0.344285 -1.006e-21)
(1.0705 -0.393312 1.03425e-21)
(1.13543 -0.402352 -1.16999e-20)
(1.13841 -0.467501 2.53046e-20)
(1.29719 -0.406555 0)
(1.06014 -0.459682 6.56983e-21)
(1.15161 -1.42102e-05 0)
(1.15162 -4.3296e-05 0)
(1.15163 -7.3152e-05 0)
(1.15163 -0.000103806 7.59726e-20)
(1.15163 -0.000135173 -1.60752e-20)
(1.15163 -0.000167389 -6.95712e-20)
(1.15162 -0.000200624 9.33554e-21)
(1.15161 -0.000235016 -5.95089e-20)
(1.1516 -0.000270696 1.0656e-20)
(1.15159 -0.000307813 4.60507e-20)
(1.15157 -0.000346523 0)
(1.15155 -0.000386984 -4.11302e-20)
(1.15152 -0.000429365 2.22849e-20)
(1.15149 -0.000473847 -1.61801e-20)
(1.15145 -0.00052062 -2.68847e-20)
(1.15142 -0.000569891 -3.89583e-20)
(1.15137 -0.000621877 5.28249e-20)
(1.15132 -0.000676815 4.3508e-22)
(1.15127 -0.000734961 -1.91528e-20)
(1.15121 -0.000796589 1.36831e-20)
(1.15115 -0.000861999 3.19282e-20)
(1.15108 -0.000931516 -4.34921e-20)
(1.151 -0.00100549 9.86641e-21)
(1.15092 -0.00108432 -2.57589e-20)
(1.15083 -0.00116841 -5.81905e-21)
(1.15073 -0.00125822 -6.82635e-21)
(1.15062 -0.00135426 -2.21362e-20)
(1.1505 -0.00145706 8.54008e-21)
(1.15037 -0.00156722 -9.055e-21)
(1.15024 -0.00168538 6.23025e-20)
(1.15009 -0.00181225 -6.03466e-21)
(1.14992 -0.0019486 -1.96277e-20)
(1.14975 -0.00209525 2.92872e-20)
(1.14956 -0.0022531 0)
(1.14935 -0.00242314 -3.72009e-20)
(1.14913 -0.00260642 -5.29691e-20)
(1.14889 -0.00280409 1.10944e-20)
(1.14863 -0.0030174 0)
(1.14834 -0.00324766 -3.10663e-20)
(1.14804 -0.00349632 0)
(1.14771 -0.00376496 9.58637e-22)
(1.14735 -0.00405522 -4.41542e-20)
(1.14696 -0.00436889 0)
(1.14655 -0.00470789 -2.84443e-20)
(1.14609 -0.00507431 3.3153e-20)
(1.14561 -0.0054703 0)
(1.14508 -0.00589821 5.38655e-20)
(1.13565 -0.0135801 0)
(1.13435 -0.0146499 1.32246e-20)
(1.13295 -0.0158035 -2.2405e-20)
(1.13144 -0.0170477 -2.55969e-20)
(1.12983 -0.0183896 0)
(1.12809 -0.0198372 -3.13331e-20)
(1.12623 -0.0213998 -4.90435e-20)
(1.12424 -0.0230868 -7.05231e-20)
(1.1221 -0.0249092 -4.07827e-20)
(1.11981 -0.0268802 1.83056e-20)
(1.11736 -0.0290134 4.17484e-20)
(1.11474 -0.0313245 -2.37812e-20)
(1.11194 -0.0338317 -4.01758e-20)
(1.10895 -0.0365543 0)
(1.10575 -0.0395179 3.5559e-20)
(1.10234 -0.0427475 5.08105e-20)
(1.0987 -0.0462764 -5.70529e-20)
(1.09483 -0.0501404 -6.57387e-20)
(1.09069 -0.054383 1.42145e-20)
(1.08629 -0.0590509 -6.76569e-20)
(1.08161 -0.064206 -4.81706e-20)
(1.07663 -0.0699222 1.18726e-20)
(1.07135 -0.0762796 3.51114e-20)
(1.06577 -0.0833814 6.71537e-20)
(1.05987 -0.091349 -6.3145e-20)
(1.05366 -0.100338 -7.12142e-20)
(1.04718 -0.110534 2.999e-20)
(1.04047 -0.122165 1.07054e-20)
(1.03363 -0.13549 1.24647e-20)
(1.02678 -0.150885 -7.93564e-20)
(1.02025 -0.168681 -4.25478e-21)
(1.01427 -0.189541 8.20788e-20)
(1.00991 -0.2135 0)
(1.00706 -0.242195 6.91363e-20)
(1.00974 -0.273332 -7.74201e-21)
(1.01388 -0.312761 3.49979e-20)
(1.0355 -0.346788 0)
(1.04854 -0.40019 1.75445e-24)
(1.11461 -0.414239 -1.80742e-24)
(1.11668 -0.487758 -8.57551e-21)
(1.28483 -0.426116 6.01212e-21)
(1.05285 -0.494686 5.54885e-20)
(1.15161 -1.36482e-05 5.08078e-20)
(1.15162 -4.16399e-05 -5.55431e-20)
(1.15162 -7.03459e-05 -1.46593e-20)
(1.15163 -9.97974e-05 -6.21867e-20)
(1.15163 -0.000129929 0)
(1.15162 -0.000160867 7.11413e-20)
(1.15162 -0.000192768 9.68309e-21)
(1.15161 -0.000225765 3.1364e-20)
(1.15159 -0.000259985 -1.12553e-20)
(1.15158 -0.000295566 -2.4402e-22)
(1.15156 -0.000332654 -3.96212e-20)
(1.15153 -0.0003714 5.61834e-20)
(1.1515 -0.000411969 7.8113e-21)
(1.15147 -0.000454528 -4.20979e-20)
(1.15144 -0.00049926 4.57119e-20)
(1.1514 -0.000546359 2.99498e-20)
(1.15135 -0.000596032 0)
(1.1513 -0.000648503 -2.44139e-20)
(1.15125 -0.000704013 -6.81493e-21)
(1.15119 -0.000762821 6.73663e-21)
(1.15112 -0.000825214 -3.23024e-20)
(1.15105 -0.000891498 7.21893e-20)
(1.15097 -0.000962007 1.02723e-20)
(1.15089 -0.0010371 -3.29692e-20)
(1.15079 -0.00111719 -6.37127e-21)
(1.15069 -0.0012027 3.46772e-20)
(1.15058 -0.0012941 0)
(1.15046 -0.00139192 -8.90374e-21)
(1.15033 -0.00149671 9.44043e-21)
(1.15019 -0.00160908 -2.15272e-20)
(1.15003 -0.00172971 0)
(1.14987 -0.00185933 7.08571e-21)
(1.14968 -0.00199872 -4.67141e-20)
(1.14949 -0.00214874 8.46399e-21)
(1.14928 -0.00231033 1.01593e-20)
(1.14905 -0.00248449 -2.17166e-20)
(1.1488 -0.00267231 4.44754e-20)
(1.14853 -0.00287499 -3.55574e-20)
(1.14824 -0.00309378 4.00828e-20)
(1.14793 -0.00333008 2.79744e-20)
(1.14759 -0.00358535 -5.14879e-20)
(1.14722 -0.0038612 1.134e-20)
(1.14683 -0.00415931 0)
(1.1464 -0.00448154 0)
(1.14593 -0.00482988 -6.86141e-20)
(1.14543 -0.00520642 -3.94813e-20)
(1.14489 -0.00561341 -5.5369e-20)
(1.14431 -0.00605324 3.77928e-20)
(1.14367 -0.00652858 0)
(1.14299 -0.00704217 -8.50891e-21)
(1.14226 -0.00759692 -6.68285e-22)
(1.14146 -0.00819603 5.23105e-20)
(1.14061 -0.0088429 4.91399e-20)
(1.13968 -0.00954125 7.18769e-21)
(1.13869 -0.0102951 -1.58279e-20)
(1.13762 -0.0111085 4.42418e-20)
(1.13646 -0.0119862 -4.05464e-20)
(1.13522 -0.0129329 -4.74819e-20)
(1.13389 -0.0139544 0)
(1.13245 -0.0150563 6.1037e-20)
(1.13091 -0.0162453 7.86979e-20)
(1.12925 -0.0175284 2.03319e-20)
(1.12747 -0.0189136 1.09637e-20)
(1.12557 -0.0204094 5.10515e-20)
(1.12352 -0.0220252 5.82347e-20)
(1.12133 -0.0237721 3.32091e-20)
(1.11898 -0.0256625 0)
(1.11647 -0.0277095 0)
(1.11378 -0.0299286 1.29374e-20)
(1.1109 -0.0323377 -2.8497e-20)
(1.10783 -0.0349576 8.13141e-20)
(1.10454 -0.0378097 -4.59237e-20)
(1.10102 -0.0409212 -3.12291e-20)
(1.09727 -0.0443232 4.71046e-20)
(1.09326 -0.0480497 -1.57056e-21)
(1.08898 -0.0521441 0)
(1.08442 -0.0566551 6.91894e-20)
(1.07955 -0.0616436 4.95967e-20)
(1.07436 -0.0671757 2.17434e-21)
(1.06883 -0.0733368 -1.24645e-20)
(1.06295 -0.0802301 0)
(1.05671 -0.0879731 -1.93818e-20)
(1.0501 -0.0967185 1.28759e-19)
(1.04314 -0.10666 -3.02006e-20)
(1.03584 -0.118025 4.8644e-20)
(1.02828 -0.131091 2.75358e-20)
(1.02056 -0.146235 1.43034e-20)
(1.01293 -0.16383 -2.02587e-20)
(1.00558 -0.184567 -1.41113e-20)
(0.999511 -0.208603 0)
(0.994566 -0.237652 -4.6941e-20)
(0.99472 -0.26978 8.92646e-22)
(0.995934 -0.310869 9.72094e-21)
(1.01479 -0.347988 -2.7871e-21)
(1.0246 -0.405915 3.83588e-21)
(1.09118 -0.425429 -9.89349e-22)
(1.0913 -0.508368 -3.16097e-21)
(1.26973 -0.446938 -1.00417e-20)
(1.03981 -0.532344 -4.59392e-20)
(1.15161 -1.30818e-05 -5.20168e-20)
(1.15161 -3.99587e-05 1.00158e-19)
(1.15162 -6.74994e-05 1.52033e-20)
(1.15162 -9.57351e-05 1.63034e-20)
(1.15162 -0.000124617 6.99958e-20)
(1.15161 -0.00015426 -1.84956e-20)
(1.15161 -0.000184811 -4.01494e-20)
(1.1516 -0.000216396 -4.26338e-20)
(1.15158 -0.000249135 0)
(1.15156 -0.000283159 0)
(1.15154 -0.000318604 5.37951e-20)
(1.15152 -0.000355618 7.45215e-21)
(1.15149 -0.000394353 -7.89981e-21)
(1.15146 -0.000434966 3.46316e-20)
(1.15142 -0.000477631 -9.69504e-21)
(1.15138 -0.00052253 1.02779e-20)
(1.15133 -0.000569858 1.16782e-20)
(1.15128 -0.000619826 1.26219e-20)
(1.15123 -0.000672661 -2.08809e-20)
(1.15116 -0.00072861 -7.99181e-21)
(1.1511 -0.000787939 8.6784e-21)
(1.15102 -0.000850937 -5.61066e-20)
(1.15094 -0.000917919 3.12345e-20)
(1.15085 -0.000989228 -5.95421e-21)
(1.15076 -0.00106524 6.31282e-21)
(1.15065 -0.00114637 -2.85944e-20)
(1.15054 -0.00123306 0)
(1.15042 -0.0013258 0)
(1.15028 -0.00142512 -1.04112e-20)
(1.15014 -0.0015316 -1.18346e-20)
(1.14998 -0.00164588 2.57034e-20)
(1.14981 -0.00176864 2.89154e-20)
(1.14963 -0.00190063 4.03037e-20)
(1.14943 -0.00204268 -8.83742e-21)
(1.14921 -0.00219565 -2.07213e-20)
(1.14897 -0.00236051 2.29608e-20)
(1.14872 -0.00253831 -3.274e-20)
(1.14845 -0.00273016 3.65624e-20)
(1.14815 -0.00293728 0)
(1.14783 -0.00316096 -3.76819e-20)
(1.14748 -0.00340263 0)
(1.1471 -0.0036638 2.47605e-20)
(1.1467 -0.00394611 -7.21599e-21)
(1.14626 -0.0042513 7.65413e-21)
(1.14578 -0.00458125 3.55517e-20)
(1.14527 -0.00493797 4.0434e-20)
(1.14471 -0.00532367 0)
(1.14411 -0.0057406 -2.61875e-20)
(1.14347 -0.00619124 -7.83365e-21)
(1.14277 -0.00667836 8.31192e-21)
(1.14201 -0.00720467 1.0175e-20)
(1.1412 -0.00777327 -1.07976e-20)
(1.14032 -0.00838753 -5.03278e-20)
(1.13938 -0.00905096 -2.93878e-20)
(1.13836 -0.00976714 -3.35265e-20)
(1.13726 -0.0105404 3.8254e-20)
(1.13608 -0.0113751 1.12067e-20)
(1.13481 -0.012276 7.3761e-20)
(1.13345 -0.0132486 3.47092e-20)
(1.13198 -0.0142983 -1.55904e-20)
(1.1304 -0.0154315 -4.498e-20)
(1.1287 -0.0166554 -4.1236e-20)
(1.12688 -0.017977 4.82167e-20)
(1.12493 -0.019405 -6.91275e-20)
(1.12284 -0.0209491 -1.63887e-20)
(1.1206 -0.0226197 9.17924e-21)
(1.11819 -0.0244284 7.10645e-22)
(1.11562 -0.0263884 -1.11267e-20)
(1.11286 -0.028515 5.3089e-20)
(1.10991 -0.0308255 0)
(1.10675 -0.0333387 -6.72317e-20)
(1.10337 -0.0360771 -3.92924e-20)
(1.09975 -0.0390666 0)
(1.09589 -0.042337 5.09705e-20)
(1.09175 -0.0459249 5.64829e-20)
(1.08733 -0.0498695 6.60465e-20)
(1.08261 -0.0542179 0)
(1.07756 -0.0590275 0)
(1.07216 -0.0643691 -3.47495e-20)
(1.06639 -0.0703274 4.19854e-20)
(1.06023 -0.0769975 0)
(1.05366 -0.0845013 5.05946e-20)
(1.04666 -0.0929891 -1.9588e-20)
(1.03922 -0.102648 0)
(1.03135 -0.113711 2.08477e-21)
(1.02309 -0.126466 -5.51467e-20)
(1.01449 -0.141302 1.61427e-20)
(1.00577 -0.158606 5.09206e-20)
(0.997054 -0.17911 -2.75163e-20)
(0.989228 -0.203087 -1.03371e-20)
(0.982107 -0.232293 0)
(0.979499 -0.265165 0)
(0.977448 -0.307661 -4.6797e-20)
(0.992914 -0.347662 2.56481e-20)
(0.998595 -0.410195 -1.91023e-21)
(1.06492 -0.435592 -2.16812e-21)
(1.06129 -0.529091 -2.29075e-20)
(1.25076 -0.468725 1.51747e-20)
(1.02179 -0.573715 -1.03889e-20)
(1.1516 -1.25112e-05 5.46252e-20)
(1.15161 -3.82557e-05 -4.42014e-20)
(1.15162 -6.46164e-05 -1.57821e-20)
(1.15162 -9.16224e-05 -1.69291e-20)
(1.15161 -0.000119238 -6.27489e-20)
(1.15161 -0.000147572 1.93182e-20)
(1.1516 -0.00017676 7.25755e-20)
(1.15159 -0.000206918 0)
(1.15157 -0.000238161 0)
(1.15155 -0.000270611 -6.54463e-20)
(1.15153 -0.0003044 1.39331e-20)
(1.15151 -0.00033966 0)
(1.15148 -0.000376537 -3.34823e-20)
(1.15144 -0.000415181 3.65193e-20)
(1.1514 -0.000455753 -2.98336e-20)
(1.15136 -0.000498423 -1.06919e-20)
(1.15132 -0.000543377 0)
(1.15126 -0.00059081 0)
(1.15121 -0.000640936 2.13099e-20)
(1.15114 -0.000693983 7.36681e-21)
(1.15107 -0.000750203 9.03833e-21)
(1.151 -0.000809867 -1.96106e-20)
(1.15092 -0.000873271 -3.28312e-20)
(1.15082 -0.000940739 2.43569e-20)
(1.15073 -0.00101262 2.71416e-20)
(1.15062 -0.0010893 2.25647e-20)
(1.1505 -0.0011712 -2.56686e-20)
(1.15038 -0.00125878 -3.79078e-20)
(1.15024 -0.00135254 -5.43092e-21)
(1.15009 -0.00145303 3.53222e-20)
(1.14993 -0.00156084 -6.64972e-20)
(1.14976 -0.00167662 -2.23866e-20)
(1.14957 -0.0018011 -4.26866e-20)
(1.14936 -0.00193502 3.77352e-20)
(1.14914 -0.00207923 3.16694e-20)
(1.1489 -0.00223464 4.88939e-20)
(1.14864 -0.00240223 0)
(1.14836 -0.00258306 -3.93333e-20)
(1.14806 -0.00277828 5.30804e-20)
(1.14773 -0.00298915 -9.6521e-21)
(1.14737 -0.00321698 0)
(1.14699 -0.00346324 7.14961e-21)
(1.14657 -0.00372946 2.99247e-20)
(1.14612 -0.00401732 -4.14599e-20)
(1.14564 -0.00432863 -4.78102e-20)
(1.14511 -0.00466527 1.03664e-20)
(1.14454 -0.00502932 -1.83063e-20)
(1.14393 -0.005423 -3.47746e-20)
(1.14327 -0.00584872 0)
(1.14256 -0.00630899 0)
(1.14178 -0.00680651 5.22092e-20)
(1.14095 -0.00734422 -5.86913e-20)
(1.14006 -0.00792525 0)
(1.13909 -0.00855305 -6.68131e-22)
(1.13805 -0.00923131 7.85886e-20)
(1.13693 -0.00996402 -4.88356e-20)
(1.13572 -0.0107553 -4.57898e-20)
(1.13442 -0.0116099 -5.11056e-20)
(1.13303 -0.0125329 -2.91632e-20)
(1.13153 -0.0135298 -3.40407e-20)
(1.12991 -0.0146067 3.88527e-20)
(1.12818 -0.0157704 0)
(1.12632 -0.017028 1.13701e-21)
(1.12433 -0.018388 4.16174e-20)
(1.12219 -0.0198593 4.79498e-20)
(1.11989 -0.0214521 0)
(1.11743 -0.0231777 -4.28697e-20)
(1.1148 -0.0250495 4.88948e-20)
(1.11197 -0.0270819 1.29046e-21)
(1.10895 -0.02929 4.80812e-20)
(1.10571 -0.0316946 -1.73323e-20)
(1.10225 -0.0343177 4.03116e-20)