/*--------------------------------*- C++ -*----------------------------------*\
  =========                 |
  \\      /  F ield         | OpenFOAM: The Open Source CFD Toolbox
   \\    /   O peration     | Website:  https://openfoam.org
    \\  /    A nd           | Version:  9
     \\/     M anipulation  |
\*---------------------------------------------------------------------------*/
FoamFile
{
    format      ascii;
    class       volScalarField;
    location    "1500";
    object      gammaInt;
}
// * * * * * * * * * * * * * * * * * * * * * * * * * * * * * * * * * * * * * //

dimensions      [0 0 0 0 0 0 0];

internalField   nonuniform List<scalar> 
13538
(
0.998733
0.998687
0.998753
0.998879
0.998982
0.999073
0.999159
0.999245
0.99933
0.999417
0.999498
0.999578
0.99966
0.999745
0.999816
0.99986
0.999874
0.999865
0.999836
0.999794
0.999746
0.999697
0.999651
0.999608
0.99957
0.999537
0.999509
0.999487
0.999469
0.999456
0.999446
0.999441
0.999439
0.999439
0.999441
0.999445
0.999449
0.999453
0.999456
0.999457
0.999455
0.999451
0.999442
0.999428
0.999408
0.999382
0.99935
0.999308
0.999258
0.9992
0.999133
0.999057
0.998971
0.998875
0.998768
0.998651
0.99852
0.998378
0.998221
0.99805
0.997866
0.997666
0.997454
0.997222
0.996971
0.9967
0.996414
0.996112
0.995794
0.995455
0.995101
0.994726
0.994344
0.993938
0.993517
0.993084
0.99262
0.992156
0.991687
0.991193
0.990684
0.990155
0.989662
0.989088
0.988577
0.987847
0.987156
0.986123
0.985489
0.984152
0.983737
0.977833
0.970918
0.944366
0.900036
0.727111
0.464982
0.122274
0.0181239
0.998969
0.998727
0.998817
0.998923
0.999014
0.999097
0.999176
0.999255
0.999334
0.999415
0.999497
0.999579
0.999661
0.999746
0.999821
0.999869
0.999886
0.999879
0.999852
0.999812
0.999765
0.999716
0.999669
0.999626
0.999586
0.999552
0.999523
0.999498
0.999478
0.999463
0.999451
0.999443
0.999439
0.999437
0.999437
0.999439
0.999443
0.999446
0.999449
0.999451
0.999451
0.999448
0.999441
0.99943
0.999415
0.999394
0.999368
0.999337
0.9993
0.999256
0.999205
0.999144
0.999075
0.998998
0.998911
0.998815
0.998706
0.998586
0.998454
0.998308
0.998151
0.997979
0.997796
0.997596
0.997377
0.99714
0.99689
0.996626
0.996349
0.996052
0.995743
0.995416
0.995084
0.994733
0.994365
0.993991
0.993585
0.99318
0.99277
0.992331
0.991882
0.991387
0.990949
0.990374
0.989906
0.989154
0.988528
0.987278
0.986801
0.984871
0.985233
0.978654
0.974451
0.946629
0.914341
0.761184
0.502017
0.14055
0.0201091
0.999139
0.998842
0.998886
0.99897
0.99905
0.999125
0.999198
0.999271
0.999346
0.999423
0.9995
0.999578
0.999656
0.999739
0.999816
0.999866
0.999885
0.999879
0.999854
0.999814
0.999768
0.999719
0.999671
0.999626
0.999586
0.99955
0.999519
0.999493
0.999472
0.999455
0.999443
0.999434
0.99943
0.999428
0.999429
0.999432
0.999436
0.999441
0.999446
0.99945
0.999452
0.999453
0.99945
0.999444
0.999434
0.999418
0.999397
0.99937
0.999337
0.999296
0.999247
0.99919
0.999123
0.999049
0.998964
0.99887
0.998763
0.998646
0.998515
0.998371
0.998216
0.998046
0.997865
0.997667
0.99745
0.997213
0.996964
0.996699
0.996423
0.996126
0.995814
0.995487
0.995151
0.994795
0.994424
0.994044
0.99363
0.993219
0.992804
0.992361
0.991912
0.991414
0.990994
0.990418
0.990016
0.989272
0.98884
0.987462
0.987373
0.98494
0.986284
0.978637
0.977172
0.947139
0.919634
0.780292
0.527123
0.1532
0.0215373
0.999281
0.998951
0.998955
0.999018
0.999085
0.999152
0.999218
0.999286
0.999356
0.999428
0.999502
0.999576
0.999651
0.999731
0.999809
0.999865
0.999888
0.999886
0.999863
0.999825
0.999779
0.99973
0.999682
0.999636
0.999595
0.999557
0.999525
0.999497
0.999474
0.999455
0.999441
0.99943
0.999424
0.999421
0.999421
0.999423
0.999427
0.999432
0.999437
0.999442
0.999447
0.999449
0.999449
0.999445
0.999438
0.999427
0.99941
0.999388
0.99936
0.999326
0.999284
0.999234
0.999176
0.99911
0.999035
0.99895
0.998853
0.998747
0.998628
0.998497
0.998354
0.998197
0.99803
0.997845
0.997643
0.997422
0.997188
0.99694
0.996681
0.996403
0.99611
0.995801
0.995486
0.995151
0.994802
0.99444
0.994051
0.993659
0.993264
0.992844
0.992414
0.991932
0.991536
0.990961
0.990597
0.989833
0.989556
0.98802
0.988246
0.985252
0.987531
0.978696
0.979878
0.948027
0.924761
0.797371
0.553391
0.166742
0.0230609
0.999394
0.999053
0.999024
0.999067
0.999123
0.999181
0.999241
0.999303
0.999368
0.999436
0.999506
0.999576
0.999649
0.999726
0.999803
0.999861
0.999889
0.999889
0.999868
0.999832
0.999787
0.999738
0.99969
0.999643
0.999601
0.999562
0.999528
0.999498
0.999473
0.999453
0.999437
0.999425
0.999417
0.999413
0.999412
0.999414
0.999418
0.999423
0.999429
0.999436
0.999442
0.999446
0.999449
0.999449
0.999445
0.999437
0.999425
0.999408
0.999385
0.999355
0.999319
0.999275
0.999223
0.999163
0.999095
0.999017
0.998928
0.998829
0.998717
0.998594
0.99846
0.998312
0.998154
0.997979
0.997786
0.997575
0.997351
0.997114
0.996864
0.996597
0.996315
0.996016
0.995711
0.995389
0.995049
0.994698
0.99432
0.993939
0.993555
0.993149
0.992732
0.992265
0.991883
0.991318
0.99099
0.990222
0.990092
0.988451
0.988987
0.985501
0.988694
0.978667
0.982273
0.948856
0.928395
0.809777
0.577971
0.180006
0.0245172
0.999486
0.999147
0.999092
0.999116
0.999161
0.999211
0.999264
0.999321
0.999382
0.999445
0.999511
0.999578
0.999647
0.999721
0.999797
0.999858
0.999889
0.999893
0.999874
0.999839
0.999795
0.999747
0.999699
0.999652
0.999608
0.999568
0.999532
0.999501
0.999474
0.999452
0.999434
0.999421
0.999412
0.999406
0.999404
0.999405
0.999408
0.999414
0.99942
0.999428
0.999435
0.999441
0.999446
0.999448
0.999448
0.999444
0.999436
0.999423
0.999404
0.99938
0.999349
0.999311
0.999266
0.999213
0.999151
0.99908
0.998999
0.998908
0.998805
0.998691
0.998566
0.998428
0.99828
0.998115
0.997934
0.997734
0.997521
0.997297
0.997059
0.996805
0.996535
0.99625
0.995958
0.99565
0.995322
0.994985
0.994618
0.994253
0.993881
0.99349
0.993086
0.992637
0.992266
0.991723
0.991408
0.990649
0.990613
0.988938
0.989701
0.98583
0.989793
0.978714
0.98433
0.949818
0.931483
0.818583
0.600919
0.193189
0.0259967
0.999562
0.999232
0.999158
0.999166
0.9992
0.999242
0.999289
0.99934
0.999396
0.999456
0.999518
0.999581
0.999647
0.999718
0.999792
0.999855
0.999889
0.999896
0.999879
0.999846
0.999804
0.999756
0.999707
0.99966
0.999616
0.999575
0.999537
0.999505
0.999476
0.999452
0.999433
0.999417
0.999407
0.9994
0.999397
0.999396
0.999399
0.999404
0.999411
0.999419
0.999427
0.999435
0.999442
0.999447
0.999449
0.999448
0.999444
0.999435
0.999422
0.999402
0.999377
0.999344
0.999305
0.999258
0.999203
0.999139
0.999065
0.998982
0.998887
0.998781
0.998665
0.998536
0.998398
0.998243
0.998072
0.997882
0.99768
0.997466
0.997241
0.996998
0.996741
0.996467
0.996188
0.995892
0.995578
0.995252
0.994896
0.994544
0.994184
0.993806
0.993414
0.992981
0.992616
0.992104
0.991784
0.991066
0.991064
0.98944
0.990328
0.986235
0.990755
0.978897
0.985993
0.950937
0.933999
0.82421
0.62323
0.206168
0.027428
0.999624
0.999308
0.99922
0.999215
0.999238
0.999273
0.999314
0.99936
0.999412
0.999467
0.999525
0.999585
0.999648
0.999716
0.999788
0.999852
0.999889
0.999898
0.999884
0.999853
0.999812
0.999765
0.999716
0.999669
0.999624
0.999582
0.999543
0.999509
0.999479
0.999453
0.999432
0.999415
0.999403
0.999394
0.99939
0.999388
0.99939
0.999395
0.999402
0.99941
0.999419
0.999428
0.999436
0.999443
0.999449
0.999451
0.99945
0.999445
0.999436
0.999421
0.999401
0.999374
0.99934
0.999299
0.99925
0.999194
0.999127
0.999051
0.998964
0.998867
0.998758
0.998639
0.99851
0.998365
0.998203
0.998024
0.997833
0.997631
0.997417
0.997185
0.99694
0.996679
0.996413
0.996128
0.995827
0.995512
0.99517
0.994829
0.994483
0.994116
0.993737
0.993322
0.99296
0.992479
0.992148
0.991489
0.991465
0.989975
0.990859
0.98675
0.991544
0.979282
0.987216
0.952254
0.936568
0.827694
0.643835
0.218894
0.0289006
0.999675
0.999377
0.999279
0.999262
0.999277
0.999304
0.999339
0.999381
0.999428
0.99948
0.999534
0.999591
0.99965
0.999715
0.999785
0.999849
0.999889
0.9999
0.999889
0.99986
0.999819
0.999773
0.999725
0.999678
0.999632
0.999589
0.99955
0.999514
0.999482
0.999455
0.999432
0.999413
0.999399
0.999389
0.999383
0.999381
0.999382
0.999385
0.999392
0.9994
0.99941
0.99942
0.99943
0.999439
0.999446
0.999451
0.999454
0.999452
0.999447
0.999437
0.999421
0.999399
0.999371
0.999336
0.999294
0.999244
0.999184
0.999115
0.999035
0.998946
0.998846
0.998736
0.998616
0.99848
0.998327
0.99816
0.997978
0.997788
0.997585
0.997365
0.997131
0.996883
0.996629
0.996356
0.996067
0.995764
0.995433
0.995105
0.994771
0.994419
0.994049
0.993652
0.993297
0.992841
0.992506
0.991902
0.99183
0.990521
0.991297
0.987381
0.992132
0.979907
0.988
0.95378
0.939161
0.831552
0.663255
0.231632
0.0302657
0.999718
0.999438
0.999334
0.999308
0.999314
0.999335
0.999365
0.999402
0.999445
0.999493
0.999544
0.999597
0.999653
0.999715
0.999783
0.999846
0.999888
0.999902
0.999893
0.999866
0.999827
0.999782
0.999734
0.999687
0.999641
0.999597
0.999556
0.99952
0.999487
0.999458
0.999433
0.999413
0.999397
0.999385
0.999378
0.999374
0.999373
0.999377
0.999382
0.999391
0.9994
0.999411
0.999422
0.999433
0.999442
0.99945
0.999455
0.999457
0.999456
0.99945
0.999439
0.999422
0.999399
0.99937
0.999334
0.99929
0.999237
0.999175
0.999102
0.999021
0.998929
0.998828
0.998716
0.998589
0.998446
0.998288
0.998117
0.997939
0.997746
0.997538
0.997315
0.997079
0.996837
0.996577
0.9963
0.996007
0.995688
0.995374
0.99505
0.994715
0.994354
0.993974
0.993626
0.993196
0.992855
0.992304
0.992183
0.991047
0.99167
0.988113
0.992515
0.980785
0.988409
0.955561
0.941799
0.835911
0.681108
0.244234
0.0316896
0.999754
0.999494
0.999386
0.999353
0.999352
0.999366
0.99939
0.999423
0.999463
0.999507
0.999554
0.999604
0.999657
0.999716
0.999781
0.999844
0.999888
0.999904
0.999897
0.999871
0.999834
0.99979
0.999743
0.999696
0.999649
0.999605
0.999564
0.999526
0.999491
0.999461
0.999435
0.999413
0.999396
0.999382
0.999373
0.999368
0.999366
0.999368
0.999373
0.999381
0.999391
0.999402
0.999414
0.999426
0.999437
0.999447
0.999455
0.99946
0.999462
0.99946
0.999454
0.999442
0.999424
0.999401
0.99937
0.999332
0.999285
0.99923
0.999165
0.999091
0.999007
0.998914
0.998811
0.998693
0.998559
0.998411
0.99825
0.998082
0.997901
0.997704
0.997492
0.997268
0.997038
0.996789
0.996524
0.996242
0.995935
0.995636
0.995322
0.995
0.994651
0.994288
0.993949
0.993536
0.993202
0.99269
0.992538
0.991538
0.992035
0.98889
0.992735
0.98189
0.988864
0.957641
0.944521
0.84053
0.698201
0.256668
0.0331157
0.999784
0.999543
0.999435
0.999395
0.999388
0.999396
0.999416
0.999445
0.999481
0.999522
0.999566
0.999612
0.999662
0.999718
0.99978
0.999842
0.999887
0.999906
0.9999
0.999877
0.999841
0.999798
0.999752
0.999705
0.999658
0.999613
0.999571
0.999533
0.999497
0.999465
0.999438
0.999414
0.999395
0.99938
0.999369
0.999362
0.999359
0.99936
0.999365
0.999372
0.999381
0.999393
0.999405
0.999418
0.999431
0.999442
0.999453
0.999461
0.999467
0.999469
0.999466
0.999459
0.999446
0.999428
0.999403
0.99937
0.99933
0.999281
0.999223
0.999156
0.99908
0.998995
0.9989
0.99879
0.998665
0.998527
0.998377
0.99822
0.998049
0.997862
0.997661
0.99745
0.997233
0.996993
0.996742
0.996469
0.996175
0.995887
0.995589
0.995279
0.99494
0.994593
0.994265
0.99387
0.99354
0.993067
0.99289
0.992
0.992416
0.989622
0.992918
0.983136
0.989386
0.959974
0.947278
0.845697
0.714148
0.268973
0.0344963
0.99981
0.999587
0.99948
0.999436
0.999423
0.999426
0.999441
0.999467
0.999499
0.999537
0.999577
0.999621
0.999668
0.999721
0.999781
0.999841
0.999887
0.999907
0.999904
0.999882
0.999848
0.999806
0.99976
0.999714
0.999667
0.999622
0.999579
0.99954
0.999503
0.99947
0.999441
0.999417
0.999396
0.999379
0.999367
0.999358
0.999354
0.999353
0.999356
0.999363
0.999372
0.999383
0.999396
0.999409
0.999423
0.999437
0.99945
0.99946
0.999469
0.999474
0.999476
0.999473
0.999465
0.999452
0.999432
0.999405
0.99937
0.999328
0.999276
0.999216
0.999148
0.999071
0.998984
0.998882
0.998766
0.998637
0.998497
0.998352
0.998191
0.998014
0.997824
0.997625
0.997419
0.997193
0.996952
0.996687
0.996408
0.996131
0.995847
0.995549
0.995224
0.994892
0.994573
0.994199
0.993872
0.99343
0.993237
0.992436
0.992796
0.990308
0.99315
0.984356
0.989936
0.962519
0.950091
0.851414
0.728856
0.281349
0.0359511
0.999832
0.999628
0.999521
0.999474
0.999456
0.999454
0.999466
0.999489
0.999518
0.999552
0.999589
0.99963
0.999674
0.999724
0.999782
0.999841
0.999887
0.999909
0.999907
0.999887
0.999854
0.999813
0.999769
0.999722
0.999676
0.999631
0.999588
0.999547
0.99951
0.999476
0.999446
0.99942
0.999397
0.999379
0.999365
0.999355
0.999349
0.999347
0.999349
0.999355
0.999363
0.999374
0.999386
0.9994
0.999415
0.999431
0.999445
0.999458
0.99947
0.999478
0.999483
0.999484
0.999481
0.999472
0.999457
0.999436
0.999407
0.99937
0.999325
0.999272
0.999211
0.999142
0.999062
0.998968
0.998861
0.998741
0.998613
0.998477
0.998325
0.99816
0.99798
0.997794
0.997598
0.997384
0.997153
0.9969
0.99663
0.996372
0.996097
0.995812
0.9955
0.995183
0.994873
0.994516
0.994202
0.993788
0.993581
0.992857
0.993156
0.990958
0.993417
0.985476
0.990491
0.965141
0.953
0.857526
0.74264
0.293762
0.0373354
0.999851
0.999659
0.99956
0.999511
0.999488
0.999482
0.999491
0.99951
0.999537
0.999567
0.999602
0.999639
0.999681
0.999729
0.999784
0.999841
0.999887
0.99991
0.99991
0.999891
0.99986
0.999821
0.999777
0.999731
0.999685
0.99964
0.999596
0.999555
0.999517
0.999482
0.999451
0.999424
0.9994
0.99938
0.999364
0.999353
0.999346
0.999342
0.999343
0.999347
0.999355
0.999365
0.999377
0.999392
0.999407
0.999423
0.99944
0.999455
0.999468
0.99948
0.999489
0.999493
0.999494
0.99949
0.99948
0.999464
0.99944
0.999409
0.99937
0.999323
0.999269
0.999207
0.999135
0.999048
0.998949
0.998839
0.998722
0.998595
0.998453
0.998298
0.998129
0.997956
0.997772
0.997567
0.997348
0.997105
0.996847
0.996601
0.996341
0.996067
0.995765
0.995469
0.995166
0.994828
0.994517
0.994136
0.993919
0.993262
0.993513
0.991574
0.993705
0.986515
0.991002
0.967642
0.955836
0.864111
0.755718
0.306024
0.0387437
0.999867
0.999691
0.999596
0.999545
0.999518
0.999509
0.999515
0.999532
0.999555
0.999583
0.999614
0.99965
0.999689
0.999734
0.999786
0.999842
0.999888
0.999911
0.999913
0.999896
0.999866
0.999828
0.999785
0.999739
0.999694
0.999649
0.999605
0.999564
0.999525
0.999489
0.999457
0.999428
0.999403
0.999382
0.999365
0.999352
0.999343
0.999338
0.999337
0.99934
0.999347
0.999356
0.999368
0.999383
0.999399
0.999416
0.999433
0.99945
0.999466
0.99948
0.999492
0.999501
0.999505
0.999505
0.999499
0.999488
0.999469
0.999443
0.99941
0.999369
0.999322
0.999266
0.999202
0.999123
0.999032
0.998931
0.998825
0.998708
0.998575
0.998429
0.998272
0.99811
0.997937
0.997745
0.997533
0.997301
0.997059
0.996824
0.99658
0.996318
0.996026
0.995745
0.995454
0.995131
0.994831
0.994472
0.994254
0.993655
0.993858
0.99216
0.994011
0.98749
0.991494
0.969949
0.958618
0.870981
0.768024
0.318303
0.0402546
0.999881
0.99972
0.999629
0.999576
0.999547
0.999536
0.999539
0.999553
0.999573
0.999598
0.999627
0.99966
0.999697
0.99974
0.99979
0.999843
0.999889
0.999913
0.999915
0.9999
0.999871
0.999834
0.999792
0.999748
0.999702
0.999658
0.999614
0.999572
0.999533
0.999497
0.999464
0.999434
0.999408
0.999385
0.999367
0.999352
0.999342
0.999335
0.999333
0.999335
0.99934
0.999348
0.99936
0.999374
0.99939
0.999408
0.999426
0.999445
0.999463
0.999479
0.999494
0.999505
0.999513
0.999517
0.999515
0.999508
0.999493
0.999473
0.999445
0.99941
0.999369
0.999321
0.999262
0.999192
0.999108
0.999018
0.998921
0.998814
0.99869
0.998553
0.998408
0.998259
0.998094
0.997915
0.997712
0.99749
0.997261
0.997041
0.996811
0.996557
0.996281
0.996012
0.995731
0.995427
0.995135
0.994802
0.994582
0.994035
0.994197
0.992694
0.994327
0.988408
0.991963
0.972071
0.961319
0.877817
0.779612
0.331089
0.0416608
0.999893
0.999747
0.999659
0.999606
0.999576
0.999562
0.999563
0.999574
0.999591
0.999614
0.999641
0.999671
0.999706
0.999746
0.999794
0.999845
0.99989
0.999915
0.999918
0.999903
0.999876
0.999841
0.9998
0.999756
0.999711
0.999666
0.999623
0.999581
0.999542
0.999505
0.999471
0.99944
0.999413
0.999389
0.999369
0.999353
0.999341
0.999333
0.99933
0.99933
0.999334
0.999342
0.999352
0.999366
0.999382
0.9994
0.999419
0.999438
0.999458
0.999477
0.999494
0.999509
0.99952
0.999527
0.999528
0.999525
0.999514
0.999498
0.999475
0.999446
0.99941
0.999369
0.999317
0.999254
0.999178
0.999098
0.999011
0.998911
0.998796
0.99867
0.998537
0.998399
0.998246
0.998076
0.997882
0.99767
0.997458
0.997251
0.997035
0.996789
0.996533
0.996275
0.996004
0.995717
0.995431
0.995123
0.994901
0.994405
0.994528
0.993191
0.994649
0.989274
0.99241
0.974081
0.963771
0.884557
0.790812
0.343454
0.0432158
0.999903
0.999769
0.999688
0.999637
0.999604
0.999588
0.999585
0.999593
0.999609
0.999629
0.999654
0.999683
0.999715
0.999753
0.999798
0.999848
0.999891
0.999916
0.99992
0.999907
0.999881
0.999846
0.999807
0.999764
0.99972
0.999675
0.999632
0.99959
0.99955
0.999513
0.999478
0.999447
0.999419
0.999394
0.999373
0.999356
0.999342
0.999333
0.999328
0.999327
0.999329
0.999336
0.999346
0.999359
0.999375
0.999392
0.999412
0.999432
0.999453
0.999474
0.999493
0.99951
0.999524
0.999534
0.999538
0.999538
0.999531
0.999519
0.9995
0.999476
0.999446
0.999411
0.999365
0.999308
0.999242
0.999172
0.999094
0.999003
0.998896
0.998781
0.99866
0.998531
0.99839
0.998229
0.998045
0.997844
0.997646
0.997455
0.997249
0.997016
0.996772
0.996526
0.99627
0.995995
0.995721
0.995437
0.995212
0.994765
0.994849
0.993661
0.994975
0.990095
0.992856
0.975941
0.966227
0.89101
0.801537
0.356378
0.044694
0.999913
0.999787
0.999715
0.999666
0.999631
0.999611
0.999606
0.999613
0.999627
0.999645
0.999668
0.999694
0.999724
0.999761
0.999804
0.999851
0.999893
0.999918
0.999923
0.99991
0.999886
0.999852
0.999813
0.999771
0.999728
0.999684
0.999641
0.999599
0.999559
0.999522
0.999487
0.999455
0.999426
0.9994
0.999378
0.999359
0.999344
0.999333
0.999327
0.999324
0.999326
0.999331
0.99934
0.999352
0.999368
0.999385
0.999405
0.999426
0.999448
0.99947
0.999491
0.99951
0.999526
0.999538
0.999545
0.999547
0.999543
0.999534
0.999519
0.9995
0.999475
0.999446
0.999406
0.999356
0.999299
0.999237
0.999168
0.999085
0.998987
0.998883
0.998773
0.998656
0.998526
0.998373
0.998196
0.998008
0.99783
0.997655
0.997456
0.997238
0.997005
0.996773
0.99653
0.996263
0.99601
0.995739
0.995515
0.995116
0.995168
0.994101
0.995296
0.990879
0.993286
0.977705
0.968549
0.897357
0.811996
0.369167
0.0463632
0.99992
0.999808
0.999743
0.999693
0.999654
0.999632
0.999627
0.999632
0.999644
0.999661
0.999682
0.999706
0.999734
0.999768
0.99981
0.999855
0.999895
0.99992
0.999925
0.999913
0.99989
0.999858
0.99982
0.999779
0.999736
0.999693
0.99965
0.999609
0.999569
0.999531
0.999495
0.999463
0.999433
0.999406
0.999383
0.999363
0.999347
0.999335
0.999327
0.999323
0.999323
0.999327
0.999335
0.999347
0.999361
0.999378
0.999398
0.999419
0.999442
0.999466
0.999488
0.999509
0.999526
0.99954
0.999548
0.999552
0.99955
0.999544
0.999532
0.999517
0.999497
0.999473
0.999439
0.999397
0.999348
0.999296
0.999235
0.999159
0.99907
0.998978
0.99888
0.998773
0.99865
0.998507
0.998341
0.998166
0.998006
0.997842
0.997657
0.997447
0.997231
0.997008
0.996782
0.996524
0.996285
0.996037
0.995811
0.995455
0.995478
0.994522
0.995618
0.991623
0.993707
0.979367
0.970833
0.903414
0.822584
0.382165
0.0480675
0.999825
0.999768
0.999714
0.999673
0.999653
0.999647
0.999651
0.999662
0.999677
0.999695
0.999718
0.999744
0.999777
0.999816
0.999859
0.999898
0.999922
0.999927
0.999916
0.999894
0.999863
0.999826
0.999786
0.999744
0.999702
0.99966
0.999618
0.999578
0.99954
0.999504
0.999471
0.999441
0.999414
0.999389
0.999369
0.999351
0.999338
0.999329
0.999324
0.999322
0.999325
0.999332
0.999342
0.999356
0.999372
0.999392
0.999414
0.999437
0.999461
0.999484
0.999506
0.999524
0.999538
0.999547
0.999551
0.999551
0.999547
0.999538
0.999526
0.999512
0.999492
0.999464
0.999429
0.999388
0.999345
0.999292
0.999223
0.999145
0.999064
0.998975
0.99888
0.998769
0.998631
0.998474
0.998317
0.998176
0.998022
0.997848
0.997647
0.997446
0.997237
0.997019
0.996783
0.996556
0.996321
0.996107
0.99578
0.995785
0.994921
0.995924
0.992324
0.994123
0.980965
0.972994
0.909481
0.832824
0.395493
0.0498781
0.999779
0.999728
0.999691
0.999673
0.999667
0.99967
0.999679
0.999692
0.999709
0.99973
0.999755
0.999785
0.999822
0.999863
0.999901
0.999924
0.999929
0.999919
0.999898
0.999868
0.999832
0.999793
0.999752
0.99971
0.999669
0.999628
0.999588
0.99955
0.999514
0.999481
0.99945
0.999422
0.999397
0.999375
0.999357
0.999342
0.999332
0.999325
0.999322
0.999324
0.99933
0.999339
0.999352
0.999367
0.999387
0.999408
0.999432
0.999456
0.99948
0.999502
0.99952
0.999533
0.999542
0.999545
0.999546
0.999543
0.999536
0.999528
0.999517
0.999502
0.99948
0.999452
0.99942
0.999384
0.999338
0.999277
0.99921
0.99914
0.999063
0.998976
0.998873
0.998743
0.998598
0.998463
0.998337
0.998193
0.998026
0.997843
0.997654
0.997462
0.997254
0.997024
0.996818
0.996591
0.996393
0.996099
0.996083
0.995308
0.996215
0.992992
0.994549
0.98249
0.975138
0.915403
0.843082
0.408951
0.0518577
0.999694
0.999687
0.999688
0.999695
0.999707
0.999722
0.999741
0.999765
0.999794
0.999829
0.999868
0.999904
0.999927
0.999932
0.999922
0.999902
0.999873
0.999838
0.9998
0.99976
0.999719
0.999678
0.999638
0.999598
0.99956
0.999524
0.999491
0.999459
0.99943
0.999405
0.999382
0.999363
0.999347
0.999336
0.999328
0.999324
0.999325
0.999329
0.999337
0.999349
0.999364
0.999382
0.999404
0.999427
0.999452
0.999476
0.999497
0.999513
0.999524
0.999531
0.999533
0.999533
0.99953
0.999525
0.99952
0.999513
0.999503
0.999487
0.999465
0.999441
0.999413
0.999373
0.999321
0.999266
0.999204
0.999137
0.99906
0.998966
0.998843
0.998715
0.998602
0.998488
0.998357
0.998196
0.998029
0.99785
0.997672
0.997479
0.997264
0.997076
0.99686
0.99667
0.996399
0.996374
0.995675
0.996492
0.993636
0.994961
0.983918
0.977279
0.921225
0.853328
0.423074
0.0539431
0.999706
0.999706
0.999711
0.999721
0.999735
0.999753
0.999775
0.999802
0.999835
0.999872
0.999907
0.999929
0.999934
0.999925
0.999906
0.999878
0.999845
0.999808
0.999769
0.999729
0.999688
0.999648
0.999609
0.999571
0.999536
0.999502
0.999469
0.99944
0.999413
0.99939
0.99937
0.999353
0.999341
0.999332
0.999327
0.999327
0.99933
0.999337
0.999347
0.999361
0.999379
0.9994
0.999423
0.999448
0.99947
0.999489
0.999502
0.99951
0.999513
0.999514
0.999513
0.999509
0.999505
0.999502
0.9995
0.999494
0.999482
0.999467
0.999449
0.999429
0.999395
0.999354
0.999309
0.999258
0.999199
0.999131
0.999046
0.998931
0.998824
0.998733
0.998629
0.998502
0.998356
0.998206
0.99804
0.997879
0.997695
0.997493
0.997321
0.997118
0.996947
0.996703
0.996663
0.996036
0.996767
0.994239
0.995368
0.985273
0.979369
0.926956
0.863839
0.437454
0.0562025
0.999722
0.999726
0.999735
0.999748
0.999764
0.999784
0.99981
0.999841
0.999876
0.999909
0.999931
0.999936
0.999929
0.99991
0.999884
0.999852
0.999816
0.999779
0.999739
0.9997
0.999661
0.999622
0.999584
0.999549
0.999514
0.99948
0.999451
0.999423
0.999399
0.999378
0.999361
0.999347
0.999337
0.999332
0.99933
0.999332
0.999337
0.999347
0.99936
0.999377
0.999398
0.99942
0.999444
0.999464
0.999479
0.999487
0.999491
0.999492
0.99949
0.999487
0.999482
0.999478
0.999477
0.999476
0.999474
0.999467
0.999455
0.999444
0.999431
0.999406
0.999373
0.999337
0.999294
0.999246
0.999189
0.999111
0.999011
0.998931
0.998855
0.99876
0.998638
0.998507
0.998373
0.998225
0.998074
0.997899
0.997721
0.997564
0.99737
0.997206
0.996988
0.99694
0.996387
0.997029
0.994802
0.995785
0.986582
0.981422
0.93252
0.874393
0.452494
0.0585715
0.999524
0.999492
0.999463
0.999434
0.999408
0.999387
0.999369
0.999355
0.999344
0.999337
0.999334
0.999335
0.99934
0.999348
0.99936
0.999377
0.999396
0.999418
0.999439
0.999456
0.999466
0.99947
0.99947
0.999468
0.999464
0.999458
0.999451
0.999447
0.999446
0.999447
0.999445
0.999438
0.999429
0.999426
0.99942
0.999403
0.999379
0.99935
0.999316
0.999277
0.999231
0.999162
0.999084
0.99903
0.998962
0.998873
0.998763
0.998653
0.99853
0.9984
0.998265
0.998103
0.997946
0.997799
0.997619
0.997481
0.997282
0.997225
0.996732
0.997298
0.995328
0.996192
0.987833
0.983421
0.938003
0.88515
0.468215
0.0610946
0.999473
0.999446
0.999419
0.999398
0.999379
0.999363
0.999352
0.999344
0.99934
0.99934
0.999343
0.999351
0.999362
0.999377
0.999396
0.999417
0.999435
0.999446
0.999452
0.999452
0.99945
0.999445
0.999438
0.99943
0.99942
0.999415
0.999414
0.999412
0.999408
0.999399
0.999392
0.999395
0.999394
0.999381
0.999364
0.999344
0.999318
0.999292
0.999256
0.999206
0.999457
0.999432
0.99941
0.99939
0.999373
0.99936
0.999352
0.999347
0.999346
0.999348
0.999355
0.999365
0.999379
0.999397
0.999416
0.999429
0.999436
0.999437
0.999435
0.999429
0.999421
0.999412
0.999401
0.99939
0.999385
0.999382
0.999376
0.999366
0.999353
0.999346
0.999356
0.999353
0.99934
0.999327
0.999316
0.999302
0.999288
0.999266
0.999421
0.999401
0.999384
0.999371
0.999361
0.999355
0.999353
0.999355
0.99936
0.999369
0.999383
0.999399
0.999415
0.999423
0.999426
0.999423
0.999418
0.999409
0.999399
0.999387
0.999374
0.999363
0.999357
0.99935
0.999337
0.999321
0.999303
0.999299
0.999308
0.999292
0.999277
0.999269
0.999266
0.999265
0.999262
0.999413
0.999397
0.999384
0.999372
0.999365
0.999362
0.999362
0.999366
0.999375
0.999388
0.999402
0.999413
0.999417
0.999415
0.99941
0.999401
0.99939
0.999377
0.999363
0.999347
0.999337
0.999328
0.999315
0.999295
0.999275
0.999254
0.999251
0.999395
0.999384
0.999377
0.999372
0.999371
0.999374
0.999383
0.999394
0.999406
0.999411
0.999411
0.999406
0.999397
0.999385
0.999371
0.999356
0.99934
0.999321
0.999311
0.999296
0.999275
0.999252
0.999229
0.999207
0.999388
0.999383
0.999381
0.999384
0.999392
0.999401
0.999408
0.99941
0.999405
0.999397
0.999385
0.99937
0.999353
0.999335
0.999317
0.999297
0.999401
0.999408
0.999412
0.999409
0.999401
0.999389
0.999374
0.999356
0.999338
0.999317
0.999296
0.999273
0.999415
0.999409
0.999398
0.999383
0.999365
0.999345
0.999324
0.9993
0.999276
0.99925
0.884191
0.81859
0.785378
0.947797
0.934328
0.890731
0.826106
0.786627
0.78885
0.754514
0.717704
0.763228
0.693315
0.605952
0.539223
0.496108
0.470193
0.45333
0.380653
0.349742
0.189852
0.0552395
0.973833
0.970612
0.96657
0.961802
0.956706
0.951918
0.947831
0.935943
0.896624
0.834173
0.789541
0.79055
0.786326
0.742234
0.75593
0.729596
0.652748
0.577129
0.518324
0.477564
0.448423
0.397724
0.374802
0.211983
0.063975
0.982604
0.980579
0.97837
0.975952
0.973218
0.970001
0.966068
0.96139
0.956439
0.951864
0.948073
0.93735
0.901667
0.842179
0.794383
0.788693
0.806465
0.772217
0.751185
0.733973
0.688443
0.621198
0.555658
0.502875
0.457547
0.411834
0.365835
0.217422
0.0707499
0.987916
0.987028
0.985735
0.984113
0.982225
0.980125
0.977843
0.975363
0.972577
0.969345
0.965535
0.961036
0.95622
0.95194
0.948501
0.938551
0.905736
0.849736
0.80109
0.787015
0.814475
0.801077
0.760197
0.733494
0.694093
0.642444
0.586688
0.531653
0.469999
0.429462
0.348645
0.211874
0.0749569
0.988277
0.988616
0.988527
0.987946
0.986913
0.985502
0.983776
0.981797
0.979619
0.977272
0.974741
0.971924
0.968701
0.964998
0.960682
0.956062
0.952157
0.949117
0.939597
0.90878
0.856479
0.809146
0.788793
0.813219
0.820849
0.779829
0.738549
0.693568
0.642448
0.58565
0.534712
0.470335
0.422604
0.328287
0.200263
0.0773369
0.987331
0.988097
0.988645
0.98886
0.988617
0.987888
0.986727
0.985206
0.983387
0.981329
0.979088
0.976686
0.97412
0.971289
0.968094
0.964492
0.960364
0.955989
0.952518
0.949909
0.940502
0.910854
0.862101
0.817647
0.795303
0.808632
0.826815
0.801544
0.754491
0.701402
0.639475
0.578392
0.52784
0.472211
0.41143
0.31046
0.188406
0.0793688
0.9861
0.986987
0.987809
0.988497
0.988947
0.989026
0.988628
0.987756
0.986478
0.984858
0.982961
0.98084
0.978546
0.976107
0.973517
0.970691
0.967539
0.964042
0.960106
0.956012
0.953007
0.950866
0.941332
0.912081
0.866455
0.82575
0.805148
0.807254
0.821477
0.812797
0.772764
0.714826
0.646678
0.580851
0.523675
0.473702
0.418988
0.302746
0.18076
0.0821908
0.983483
0.984182
0.984959
0.985792
0.986646
0.987482
0.988243
0.988848
0.989182
0.989107
0.988561
0.987561
0.986177
0.984475
0.982514
0.980341
0.978007
0.975544
0.972946
0.970137
0.967042
0.963658
0.959905
0.956117
0.953621
0.951967
0.942091
0.912644
0.869636
0.8329
0.815647
0.812461
0.813351
0.807579
0.777153
0.723362
0.657801
0.590558
0.529022
0.479896
0.444673
0.304759
0.176382
0.0863191
0.982427
0.98266
0.983022
0.983507
0.984101
0.984787
0.985546
0.98635
0.987164
0.987946
0.988633
0.989138
0.989339
0.989112
0.988427
0.987314
0.985838
0.98407
0.982056
0.979845
0.977485
0.975008
0.972413
0.969631
0.966604
0.963335
0.95976
0.956292
0.954348
0.953183
0.942775
0.912663
0.871917
0.83884
0.824729
0.822345
0.809867
0.791197
0.76195
0.716057
0.657553
0.594982
0.537397
0.490848
0.46749
0.312451
0.173901
0.0915887
0.98305
0.982902
0.982889
0.983012
0.983263
0.983639
0.984128
0.984717
0.985388
0.986122
0.986889
0.987652
0.988369
0.988971
0.989363
0.989415
0.989045
0.988235
0.987022
0.985472
0.983652
0.981598
0.979359
0.976984
0.974502
0.97192
0.969175
0.966222
0.963065
0.959667
0.956529
0.955169
0.954494
0.943345
0.912241
0.873553
0.843551
0.831207
0.831406
0.810807
0.772729
0.733403
0.689871
0.638367
0.583951
0.535345
0.495336
0.478697
0.322073
0.174826
0.0971144
0.98415
0.983789
0.983552
0.983443
0.983463
0.983611
0.983881
0.984265
0.984752
0.985329
0.985979
0.986679
0.987401
0.988107
0.988747
0.989251
0.989515
0.98942
0.988917
0.987996
0.986698
0.985091
0.983227
0.981147
0.978891
0.976508
0.974033
0.971471
0.968768
0.965888
0.962843
0.959618
0.956812
0.956064
0.955857
0.943747
0.911424
0.87486
0.846947
0.834219
0.835067
0.809458
0.755627
0.700831
0.652212
0.604525
0.558512
0.519575
0.48862
0.477625
0.337048
0.182761
0.104208
0.994983
0.996461
0.997142
0.99756
0.997837
0.998036
0.998172
0.99825
0.998277
0.998271
0.998247
0.998215
0.99818
0.998147
0.998117
0.998093
0.998076
0.998066
0.998064
0.998069
0.998082
0.998098
0.998113
0.998116
0.998094
0.998028
0.997897
0.997688
0.997393
0.997006
0.996528
0.995959
0.995306
0.994577
0.993781
0.992929
0.992038
0.991126
0.990209
0.989303
0.988431
0.987612
0.986855
0.986161
0.985539
0.98501
0.984584
0.984271
0.984077
0.984006
0.984056
0.984226
0.984507
0.984894
0.985374