/*--------------------------------*- C++ -*----------------------------------*\
  =========                 |
  \\      /  F ield         | OpenFOAM: The Open Source CFD Toolbox
   \\    /   O peration     | Website:  https://openfoam.org
    \\  /    A nd           | Version:  9
     \\/     M anipulation  |
\*---------------------------------------------------------------------------*/
FoamFile
{
    format      ascii;
    class       volScalarField;
    location    "1500";
    object      k;
}
// * * * * * * * * * * * * * * * * * * * * * * * * * * * * * * * * * * * * * //

dimensions      [0 2 -2 0 0 0 0];

internalField   nonuniform List<scalar> 
13538
(
8.93405e-06
2.61667e-07
2.19828e-07
1.28684e-06
1.72928e-06
1.82555e-06
1.90832e-06
2.01199e-06
2.12417e-06
2.24167e-06
2.36513e-06
2.49511e-06
2.63202e-06
2.77636e-06
2.92844e-06
3.0888e-06
3.25792e-06
3.4362e-06
3.62425e-06
3.82256e-06
4.03167e-06
4.25221e-06
4.48478e-06
4.73007e-06
4.98875e-06
5.26152e-06
5.54912e-06
5.85224e-06
6.1718e-06
6.50876e-06
6.86396e-06
7.23826e-06
7.63276e-06
8.04839e-06
8.48635e-06
8.9478e-06
9.43361e-06
9.9452e-06
1.04836e-05
1.10503e-05
1.16468e-05
1.22742e-05
1.2934e-05
1.36277e-05
1.43567e-05
1.51222e-05
1.59261e-05
1.67702e-05
1.7656e-05
1.85845e-05
1.95577e-05
2.05768e-05
2.16441e-05
2.27604e-05
2.39275e-05
2.51472e-05
2.64205e-05
2.77501e-05
2.9137e-05
3.05808e-05
3.20829e-05
3.36449e-05
3.52664e-05
3.69488e-05
3.86932e-05
4.05026e-05
4.23782e-05
4.43175e-05
4.63191e-05
4.83818e-05
5.05069e-05
5.26974e-05
5.49555e-05
5.72758e-05
5.96579e-05
6.21025e-05
6.46089e-05
6.71789e-05
6.98114e-05
7.24936e-05
7.52092e-05
7.79405e-05
8.0658e-05
8.33461e-05
8.60674e-05
8.89142e-05
9.19386e-05
9.50984e-05
9.83393e-05
0.000101618
0.000104919
0.000108215
0.000111638
0.000115238
0.000119736
0.000128238
0.000149646
0.00018287
0.000144545
1.16032e-05
5.71961e-07
2.91395e-08
1.25637e-06
1.79707e-06
1.92262e-06
2.00473e-06
2.10997e-06
2.22652e-06
2.34882e-06
2.47709e-06
2.61205e-06
2.75413e-06
2.90375e-06
3.06137e-06
3.22745e-06
3.40244e-06
3.58686e-06
3.78119e-06
3.986e-06
4.20184e-06
4.4293e-06
4.66899e-06
4.92155e-06
5.18766e-06
5.46804e-06
5.76341e-06
6.07456e-06
6.40235e-06
6.74754e-06
7.111e-06
7.49372e-06
7.89668e-06
8.32084e-06
8.76722e-06
9.23689e-06
9.73106e-06
1.02508e-05
1.07974e-05
1.1372e-05
1.1976e-05
1.26106e-05
1.32771e-05
1.39771e-05
1.47118e-05
1.54827e-05
1.62913e-05
1.71391e-05
1.80274e-05
1.89579e-05
1.99321e-05
2.09511e-05
2.20167e-05
2.31302e-05
2.42931e-05
2.55066e-05
2.67716e-05
2.80898e-05
2.94618e-05
3.08889e-05
3.23723e-05
3.39127e-05
3.5511e-05
3.71666e-05
3.88814e-05
4.06568e-05
4.24949e-05
4.43937e-05
4.63525e-05
4.83702e-05
5.04485e-05
5.25897e-05
5.47966e-05
5.70641e-05
5.9389e-05
6.17758e-05
6.4227e-05
6.6742e-05
6.93124e-05
7.19343e-05
7.45964e-05
7.72729e-05
7.99386e-05
8.25751e-05
8.5231e-05
8.80007e-05
9.09493e-05
9.40543e-05
9.72618e-05
0.000100519
0.00010382
0.000107122
0.000110563
0.00011418
0.000118537
0.000125977
0.000145221
0.000180292
0.000150284
1.38306e-05
1.29796e-07
3.02788e-08
1.08929e-06
1.73888e-06
1.90739e-06
1.98472e-06
2.08429e-06
2.19923e-06
2.32054e-06
2.4476e-06
2.5812e-06
2.72186e-06
2.87001e-06
3.02607e-06
3.19051e-06
3.36379e-06
3.54641e-06
3.73889e-06
3.94174e-06
4.15554e-06
4.38087e-06
4.61834e-06
4.86861e-06
5.13234e-06
5.41025e-06
5.70306e-06
6.01151e-06
6.33648e-06
6.67879e-06
7.03932e-06
7.41898e-06
7.81877e-06
8.23967e-06
8.68271e-06
9.14897e-06
9.63963e-06
1.01558e-05
1.06986e-05
1.12694e-05
1.18695e-05
1.25001e-05
1.31627e-05
1.38586e-05
1.45892e-05
1.5356e-05
1.61604e-05
1.7004e-05
1.78881e-05
1.88142e-05
1.97842e-05
2.07992e-05
2.18608e-05
2.29704e-05
2.4129e-05
2.53386e-05
2.66003e-05
2.79157e-05
2.92851e-05
3.07101e-05
3.21915e-05
3.37302e-05
3.53272e-05
3.69823e-05
3.86962e-05
4.04687e-05
4.23001e-05
4.41901e-05
4.614e-05
4.81467e-05
5.02126e-05
5.23392e-05
5.45287e-05
5.67792e-05
5.90859e-05
6.14529e-05
6.38875e-05
6.6384e-05
6.8935e-05
7.154e-05
7.41875e-05
7.68517e-05
7.95075e-05
8.21337e-05
8.47714e-05
8.75163e-05
9.04371e-05
9.35172e-05
9.67106e-05
9.99675e-05
0.000103282
0.000106605
0.000110076
0.000113722
0.000118065
0.000124989
0.000142634
0.000178175
0.000154357
1.57363e-05
1.70016e-07
8.52836e-08
9.62668e-07
1.69147e-06
1.91423e-06
1.99361e-06
2.08791e-06
2.20181e-06
2.32345e-06
2.4507e-06
2.58436e-06
2.72506e-06
2.87323e-06
3.02931e-06
3.19374e-06
3.36699e-06
3.54956e-06
3.74196e-06
3.94472e-06
4.15841e-06
4.3836e-06
4.6209e-06
4.87096e-06
5.13444e-06
5.41206e-06
5.70454e-06
6.01264e-06
6.3372e-06
6.67903e-06
7.039e-06
7.41806e-06
7.81716e-06
8.23729e-06
8.6795e-06
9.14479e-06
9.63437e-06
1.01494e-05
1.0691e-05
1.12604e-05
1.18589e-05
1.24879e-05
1.31487e-05
1.38424e-05
1.45709e-05
1.53352e-05
1.61371e-05
1.69779e-05
1.7859e-05
1.87819e-05
1.97483e-05
2.07595e-05
2.18169e-05
2.29223e-05
2.40765e-05
2.52812e-05
2.65375e-05
2.78472e-05
2.9211e-05
3.06297e-05
3.21042e-05
3.36358e-05
3.52256e-05
3.68734e-05
3.85796e-05
4.03447e-05
4.217e-05
4.40538e-05
4.59968e-05
4.79986e-05
5.00578e-05
5.21738e-05
5.43475e-05
5.65759e-05
5.88593e-05
6.12009e-05
6.36038e-05
6.60682e-05
6.85888e-05
7.11648e-05
7.37851e-05
7.64226e-05
7.90601e-05
8.16704e-05
8.4286e-05
8.69993e-05
8.98852e-05
9.29379e-05
9.6113e-05
9.93588e-05
0.000102671
0.000106
0.000109492
0.000113163
0.000117496
0.000123994
0.000140049
0.000175837
0.000158263
1.74216e-05
1.05979e-07
1.29044e-07
8.32576e-07
1.62445e-06
1.90841e-06
1.99547e-06
2.08395e-06
2.19559e-06
2.31704e-06
2.44412e-06
2.57743e-06
2.71771e-06
2.86544e-06
3.02103e-06
3.18494e-06
3.35764e-06
3.53962e-06
3.73138e-06
3.93346e-06
4.14642e-06
4.37083e-06
4.60731e-06
4.8565e-06
5.11903e-06
5.39565e-06
5.68708e-06
5.99405e-06
6.31741e-06
6.65797e-06
7.01659e-06
7.39421e-06
7.79179e-06
8.21027e-06
8.65074e-06
9.1142e-06
9.60183e-06
1.01147e-05
1.06541e-05
1.12213e-05
1.18174e-05
1.24437e-05
1.31017e-05
1.37927e-05
1.4518e-05
1.52791e-05
1.60776e-05
1.69148e-05
1.77921e-05
1.87111e-05
1.96734e-05
2.06802e-05
2.1733e-05
2.28336e-05
2.39828e-05
2.51826e-05
2.64335e-05
2.77374e-05
2.90953e-05
3.05081e-05
3.19771e-05
3.35024e-05
3.50854e-05
3.67263e-05
3.84259e-05
4.01848e-05
4.20028e-05
4.38783e-05
4.58135e-05
4.78072e-05
4.98594e-05
5.19696e-05
5.41375e-05
5.63611e-05
5.8641e-05
6.09774e-05
6.33669e-05
6.58095e-05
6.83055e-05
7.08519e-05
7.34389e-05
7.60466e-05
7.86617e-05
8.12538e-05
8.38498e-05
8.65375e-05
8.93969e-05
9.24325e-05
9.55937e-05
9.88293e-05
0.000102138
0.000105472
0.000108979
0.000112664
0.000116997
0.000123202
0.000137827
0.00017349
0.000161641
1.89337e-05
1.41615e-06
9.02914e-08
7.03591e-07
1.54795e-06
1.89694e-06
1.99818e-06
2.08146e-06
2.18998e-06
2.31103e-06
2.43801e-06
2.57099e-06
2.71087e-06
2.85816e-06
3.01328e-06
3.17669e-06
3.34884e-06
3.53022e-06
3.72135e-06
3.92275e-06
4.13498e-06
4.35861e-06
4.59425e-06
4.84254e-06
5.10415e-06
5.37974e-06
5.67008e-06
5.9759e-06
6.29802e-06
6.63726e-06
6.99448e-06
7.37061e-06
7.7666e-06
8.1834e-06
8.62207e-06
9.08361e-06
9.56922e-06
1.008e-05
1.0617e-05
1.11817e-05
1.17752e-05
1.23988e-05
1.30539e-05
1.37417e-05
1.44638e-05
1.52214e-05
1.60163e-05
1.68496e-05
1.77228e-05
1.86374e-05
1.95952e-05
2.05974e-05
2.16452e-05
2.27405e-05
2.38844e-05
2.50783e-05
2.63233e-05
2.76213e-05
2.89729e-05
3.0379e-05
3.18409e-05
3.33593e-05
3.49353e-05
3.65688e-05
3.82609e-05
4.00112e-05
4.18214e-05
4.36899e-05
4.56166e-05
4.76023e-05
4.96459e-05
5.17475e-05
5.39076e-05
5.61233e-05
5.83939e-05
6.07219e-05
6.31048e-05
6.55447e-05
6.80359e-05
7.05724e-05
7.31409e-05
7.57244e-05
7.83136e-05
8.08772e-05
8.34468e-05
8.61062e-05
8.8937e-05
9.19482e-05
9.50998e-05
9.83333e-05
0.000101644
0.000104987
0.000108496
0.000112187
0.000116518
0.000122529
0.000135896
0.000171141
0.000164801
2.03056e-05
1.74531e-06
5.97198e-08
5.85585e-07
1.46065e-06
1.87695e-06
1.99901e-06
2.07842e-06
2.18294e-06
2.30315e-06
2.42995e-06
2.56256e-06
2.70193e-06
2.84867e-06
3.00321e-06
3.16598e-06
3.33746e-06
3.51812e-06
3.70848e-06
3.90906e-06
4.12041e-06
4.34311e-06
4.57776e-06
4.82499e-06
5.08545e-06
5.35986e-06
5.64892e-06
5.95338e-06
6.27404e-06
6.61175e-06
6.96735e-06
7.34175e-06
7.73591e-06
8.15073e-06
8.5873e-06
9.04666e-06
9.52996e-06
1.00382e-05
1.05727e-05
1.11346e-05
1.17252e-05
1.23456e-05
1.29973e-05
1.36817e-05
1.44002e-05
1.51541e-05
1.59448e-05
1.67738e-05
1.76425e-05
1.85525e-05
1.95053e-05
2.05022e-05
2.15445e-05
2.2634e-05
2.3772e-05
2.49599e-05
2.61987e-05
2.74902e-05
2.88348e-05
3.02336e-05
3.16882e-05
3.31993e-05
3.4768e-05
3.63939e-05
3.80779e-05
3.98202e-05
4.16217e-05
4.34813e-05
4.54005e-05
4.73777e-05
4.94136e-05
5.15059e-05
5.36569e-05
5.58638e-05
5.81265e-05
6.04461e-05
6.28214e-05
6.52517e-05
6.77344e-05
7.0266e-05
7.28331e-05
7.54156e-05
7.79982e-05
8.05474e-05
8.30903e-05
8.57136e-05
8.8508e-05
9.14948e-05
9.46357e-05
9.78708e-05
0.000101188
0.000104535
0.000108055
0.000111754
0.00011607
0.000121939
0.000134156
0.000168819
0.000167569
2.15637e-05
1.80404e-07
5.68278e-08
4.82703e-07
1.36632e-06
1.84817e-06
1.99754e-06
2.07527e-06
2.17512e-06
2.29394e-06
2.42049e-06
2.55269e-06
2.69149e-06
2.8376e-06
2.99147e-06
3.15353e-06
3.32424e-06
3.50408e-06
3.69356e-06
3.89321e-06
4.10357e-06
4.32521e-06
4.55874e-06
4.80477e-06
5.06397e-06
5.33702e-06
5.62465e-06
5.92759e-06
6.24664e-06
6.58264e-06
6.93642e-06
7.30888e-06
7.70097e-06
8.11365e-06
8.54794e-06
9.00485e-06
9.48553e-06
9.99108e-06
1.05227e-05
1.10815e-05
1.16688e-05
1.22859e-05
1.2934e-05
1.36146e-05
1.43291e-05
1.50787e-05
1.5865e-05
1.66893e-05
1.75532e-05
1.8458e-05
1.94053e-05
2.03965e-05
2.14332e-05
2.25167e-05
2.36483e-05
2.48296e-05
2.60613e-05
2.73454e-05
2.86828e-05
3.00747e-05
3.15215e-05
3.30245e-05
3.4585e-05
3.62021e-05
3.78779e-05
3.96114e-05
4.1404e-05
4.32552e-05
4.51646e-05
4.71324e-05
4.91594e-05
5.1243e-05
5.33837e-05
5.55819e-05
5.78369e-05
6.0149e-05
6.25144e-05
6.49364e-05
6.74123e-05
6.99354e-05
7.24956e-05
7.50722e-05
7.76548e-05
8.02128e-05
8.27582e-05
8.53619e-05
8.81191e-05
9.10687e-05
9.41912e-05
9.74252e-05
0.000100748
0.000104117
0.00010765
0.000111354
0.000115654
0.000121422
0.000132658
0.000166545
0.000170229
2.27284e-05
1.05802e-06
1.5156e-07
3.90422e-07
1.2675e-06
1.81051e-06
1.99273e-06
2.0717e-06
2.16653e-06
2.28335e-06
2.40948e-06
2.54125e-06
2.67941e-06
2.8248e-06
2.9779e-06
3.13915e-06
3.30899e-06
3.48791e-06
3.67641e-06
3.87501e-06
4.08425e-06
4.30471e-06
4.53697e-06
4.78167e-06
5.03945e-06
5.311e-06
5.59702e-06
5.89827e-06
6.21554e-06
6.54964e-06
6.90141e-06
7.27173e-06
7.66155e-06
8.07182e-06
8.50355e-06
8.95776e-06
9.4356e-06
9.93816e-06
1.04666e-05
1.10221e-05
1.16059e-05
1.22192e-05
1.28634e-05
1.35399e-05
1.425e-05
1.49951e-05
1.57766e-05
1.65957e-05
1.74543e-05
1.83536e-05
1.92952e-05
2.02804e-05
2.13106e-05
2.23876e-05
2.35125e-05
2.46867e-05
2.59111e-05
2.71875e-05
2.85168e-05
2.99005e-05
3.13395e-05
3.28338e-05
3.43849e-05
3.59933e-05
3.766e-05
3.93846e-05
4.11678e-05
4.30094e-05
4.49093e-05
4.68683e-05
4.88855e-05
5.09595e-05
5.30912e-05
5.52795e-05
5.75245e-05
5.98267e-05
6.21841e-05
6.45969e-05
6.70636e-05
6.95784e-05
7.21305e-05
7.47041e-05
7.72848e-05
7.98441e-05
8.23944e-05
8.50019e-05
8.77527e-05
9.06819e-05
9.37774e-05
9.69963e-05
0.000100323
0.000103711
0.000107266
0.000110988
0.000115268
0.000120954
0.000131344
0.000164307
0.000172425
2.381e-05
7.82496e-08
3.83514e-08
3.0776e-07
1.16494e-06
1.76429e-06
1.98384e-06
2.06744e-06
2.1573e-06
2.27146e-06
2.39695e-06
2.52825e-06
2.66571e-06
2.8103e-06
2.96255e-06
3.12289e-06
3.29176e-06
3.46965e-06
3.65705e-06
3.85449e-06
4.06249e-06
4.28164e-06
4.51251e-06
4.75573e-06
5.01195e-06
5.28183e-06
5.5661e-06
5.86549e-06
6.18076e-06
6.51277e-06
6.86232e-06
7.23031e-06
7.61764e-06
8.02531e-06
8.45427e-06
8.90558e-06
9.38028e-06
9.87954e-06
1.04045e-05
1.09564e-05
1.15363e-05
1.21456e-05
1.27856e-05
1.34575e-05
1.41629e-05
1.4903e-05
1.56793e-05
1.64932e-05
1.7346e-05
1.82393e-05
1.91747e-05
2.01534e-05
2.11769e-05
2.22467e-05
2.33643e-05
2.45308e-05
2.57472e-05
2.70157e-05
2.83366e-05
2.97117e-05
3.11414e-05
3.2627e-05
3.4169e-05
3.5768e-05
3.74253e-05
3.91396e-05
4.09125e-05
4.2745e-05
4.46352e-05
4.65829e-05
4.85895e-05
5.06535e-05
5.27752e-05
5.49536e-05
5.71885e-05
5.9481e-05
6.18283e-05
6.42317e-05
6.66898e-05
6.91966e-05
7.1741e-05
7.43091e-05
7.6886e-05
7.94471e-05
8.20007e-05
8.4607e-05
8.73513e-05
9.02859e-05
9.33869e-05
9.66005e-05
9.99204e-05
0.000103318
0.000106892
0.000110638
0.000114906
0.000120515
0.000130225
0.000162133
0.000174605
2.48212e-05
1.07248e-06
1.30662e-07
2.22515e-07
1.05835e-06
1.70981e-06
1.97035e-06
2.06217e-06
2.14748e-06
2.25834e-06
2.38289e-06
2.51368e-06
2.6504e-06
2.7941e-06
2.9454e-06
3.10473e-06
3.27254e-06
3.44929e-06
3.63549e-06
3.83164e-06
4.03828e-06
4.25599e-06
4.48533e-06
4.72693e-06
4.98143e-06
5.2495e-06
5.53183e-06
5.82918e-06
6.14231e-06
6.47204e-06
6.81918e-06
7.18461e-06
7.56925e-06
7.97407e-06
8.40001e-06
8.84815e-06
9.31952e-06
9.81527e-06
1.03365e-05
1.08843e-05
1.14602e-05
1.20651e-05
1.27005e-05
1.33677e-05
1.40679e-05
1.48027e-05
1.55734e-05
1.63814e-05
1.72282e-05
1.81151e-05
1.90438e-05
2.00155e-05
2.10317e-05
2.20939e-05
2.32036e-05
2.43623e-05
2.55705e-05
2.68304e-05
2.81422e-05
2.9508e-05
3.09282e-05
3.24045e-05
3.39366e-05
3.55253e-05
3.71717e-05
3.88764e-05
4.06384e-05
4.24599e-05
4.43398e-05
4.62775e-05
4.82733e-05
5.03259e-05
5.24362e-05
5.46044e-05
5.68299e-05
5.9111e-05
6.14474e-05
6.3842e-05
6.62895e-05
6.87878e-05
7.13243e-05
7.38856e-05
7.64576e-05
7.90213e-05
8.15801e-05
8.41834e-05
8.69256e-05
8.98559e-05
9.2963e-05
9.61983e-05
9.95347e-05
0.000102947
0.000106529
0.0001103
0.000114573
0.000120113
0.00012924
0.000160018
0.000176636
2.57675e-05
2.18136e-06
2.21478e-08
1.37507e-07
9.47341e-07
1.64688e-06
1.95193e-06
2.0556e-06
2.13709e-06
2.24407e-06
2.36731e-06
2.49751e-06
2.63345e-06
2.77618e-06
2.92644e-06
3.08467e-06
3.2513e-06
3.42682e-06
3.61169e-06
3.80644e-06
4.0116e-06
4.22774e-06
4.45542e-06
4.69525e-06
4.94788e-06
5.21397e-06
5.49422e-06
5.78936e-06
6.10015e-06
6.42739e-06
6.77192e-06
7.13459e-06
7.51629e-06
7.91805e-06
8.3408e-06
8.78554e-06
9.25331e-06
9.74526e-06
1.02625e-05
1.08061e-05
1.13774e-05
1.19777e-05
1.26081e-05
1.32701e-05
1.39651e-05
1.46942e-05
1.54589e-05
1.62606e-05
1.71009e-05
1.79809e-05
1.89025e-05
1.98668e-05
2.08754e-05
2.19297e-05
2.30309e-05
2.41807e-05
2.538e-05
2.66306e-05
2.79331e-05
2.92894e-05
3.06996e-05
3.21654e-05
3.36868e-05
3.52648e-05
3.69007e-05
3.85948e-05
4.03463e-05
4.21564e-05
4.40244e-05
4.59504e-05
4.79352e-05
4.99768e-05
5.20766e-05
5.42327e-05
5.64456e-05
5.8715e-05
6.10418e-05
6.34259e-05
6.58654e-05
6.83537e-05
7.08805e-05
7.34346e-05
7.6004e-05
7.85673e-05
8.11293e-05
8.37364e-05
8.64715e-05
8.9399e-05
9.25133e-05
9.57686e-05
9.91385e-05
0.000102586
0.000106184
0.000109977
0.00011425
0.00011973
0.000128392
0.00015795
0.00017845
2.66572e-05
4.73135e-07
2.64944e-08
6.08706e-08
8.29858e-07
1.57515e-06
1.92819e-06
2.04745e-06
2.12615e-06
2.22873e-06
2.35022e-06
2.47973e-06
2.61485e-06
2.75653e-06
2.90565e-06
3.06268e-06
3.22805e-06
3.40221e-06
3.58565e-06
3.77889e-06
3.98244e-06
4.19687e-06
4.42275e-06
4.66068e-06
4.91129e-06
5.17525e-06
5.45324e-06
5.74599e-06
6.05426e-06
6.37884e-06
6.72054e-06
7.08022e-06
7.45882e-06
7.85729e-06
8.27657e-06
8.7177e-06
9.18161e-06
9.66948e-06
1.01824e-05
1.07215e-05
1.12881e-05
1.18834e-05
1.25086e-05
1.31651e-05
1.38542e-05
1.45771e-05
1.53356e-05
1.61307e-05
1.6964e-05
1.78368e-05
1.87507e-05
1.97073e-05
2.07075e-05
2.17533e-05
2.28458e-05
2.39866e-05
2.51764e-05
2.64172e-05
2.77097e-05
2.90554e-05
3.04549e-05
3.19096e-05
3.34207e-05
3.4988e-05
3.66119e-05
3.82934e-05
4.00333e-05
4.18321e-05
4.3688e-05
4.56017e-05
4.75741e-05
4.96042e-05
5.16927e-05
5.38368e-05
5.60375e-05
5.82955e-05
6.06117e-05
6.2986e-05
6.54148e-05
6.78941e-05
7.04132e-05
7.29602e-05
7.55248e-05
7.80888e-05
8.06528e-05
8.32574e-05
8.59896e-05
8.89134e-05
9.20332e-05
9.53091e-05
9.87095e-05
0.000102205
0.000105847
0.000109671
0.000113943
0.000119362
0.000127665
0.000155906
0.000180313
2.74923e-05
9.32954e-07
8.08842e-08
1.51854e-08
7.15328e-07
1.49518e-06
1.89838e-06
2.03736e-06
2.1147e-06
2.21245e-06
2.33166e-06
2.46031e-06
2.59458e-06
2.73516e-06
2.88305e-06
3.03879e-06
3.20278e-06
3.37549e-06
3.55739e-06
3.749e-06
3.95082e-06
4.16342e-06
4.38736e-06
4.62325e-06
4.8717e-06
5.13337e-06
5.40895e-06
5.69915e-06
6.00473e-06
6.32646e-06
6.66516e-06
7.0217e-06
7.39694e-06
7.79185e-06
8.20737e-06
8.64456e-06
9.10441e-06
9.58802e-06
1.00964e-05
1.06308e-05
1.11923e-05
1.17823e-05
1.24019e-05
1.30524e-05
1.37354e-05
1.44519e-05
1.52035e-05
1.59916e-05
1.68175e-05
1.76827e-05
1.85886e-05
1.95367e-05
2.05283e-05
2.15653e-05
2.26484e-05
2.37793e-05
2.4959e-05
2.61896e-05
2.74718e-05
2.88067e-05
3.01948e-05
3.16382e-05
3.31372e-05
3.46923e-05
3.63049e-05
3.79746e-05
3.97016e-05
4.14871e-05
4.33309e-05
4.52322e-05
4.71916e-05
4.92097e-05
5.12844e-05
5.34159e-05
5.56048e-05
5.78513e-05
6.0158e-05
6.25235e-05
6.49403e-05
6.74099e-05
6.99188e-05
7.24567e-05
7.50159e-05
7.75819e-05
8.01521e-05
8.27576e-05
8.54834e-05
8.83999e-05
9.15207e-05
9.4814e-05
9.82459e-05
0.00010179
0.000105483
0.000109364
0.000113655
0.000119018
0.000127032
0.00015391
0.000181947
2.82849e-05
1.49718e-06
1.3037e-07
4.25479e-08
6.14807e-07
1.40675e-06
1.86157e-06
2.02483e-06
2.10275e-06
2.19543e-06
2.31175e-06
2.4393e-06
2.57267e-06
2.71212e-06
2.8587e-06
3.01304e-06
3.17557e-06
3.34672e-06
3.52699e-06
3.71686e-06
3.91685e-06
4.1275e-06
4.34938e-06
4.5831e-06
4.82925e-06
5.08849e-06
5.36151e-06
5.64901e-06
5.95173e-06
6.27045e-06
6.60598e-06
6.95918e-06
7.33088e-06
7.72198e-06
8.13345e-06
8.56635e-06
9.0218e-06
9.50077e-06
1.00044e-05
1.05337e-05
1.10898e-05
1.16742e-05
1.22879e-05
1.29323e-05
1.36087e-05
1.43184e-05
1.50629e-05
1.58435e-05
1.66616e-05
1.75185e-05
1.8416e-05
1.93555e-05
2.03379e-05
2.13652e-05
2.24384e-05
2.35592e-05
2.47286e-05
2.59481e-05
2.72189e-05
2.85423e-05
2.99188e-05
3.13503e-05
3.28374e-05
3.43794e-05
3.59788e-05
3.76354e-05
3.93495e-05
4.11217e-05
4.29519e-05
4.48404e-05
4.67866e-05
4.87918e-05
5.08536e-05
5.29708e-05
5.51486e-05
5.73846e-05
5.96793e-05
6.20345e-05
6.44414e-05
6.68968e-05
6.93952e-05
7.19284e-05
7.4482e-05
7.7046e-05
7.96186e-05
8.22286e-05
8.49456e-05
8.7853e-05
9.09743e-05
9.42832e-05
9.77474e-05
0.00010134
0.000105081
0.00010903
0.000113366
0.000118681
0.000126473
0.00015202
0.000183542
2.90344e-05
1.94321e-06
1.83851e-07
6.1982e-10
5.21934e-07
1.31314e-06
1.81712e-06
2.00921e-06
2.09021e-06
2.17785e-06
2.29071e-06
2.41684e-06
2.54922e-06
2.68748e-06
2.8327e-06
2.98557e-06
3.14655e-06
3.31607e-06
3.49459e-06
3.68262e-06
3.88067e-06
4.08927e-06
4.30899e-06
4.54041e-06
4.78414e-06
5.04083e-06
5.31116e-06
5.59581e-06
5.89553e-06
6.21108e-06
6.54328e-06
6.89297e-06
7.26094e-06
7.64796e-06
8.05507e-06
8.48335e-06
8.93394e-06
9.40791e-06
9.90635e-06
1.04303e-05
1.09809e-05
1.15593e-05
1.21668e-05
1.28046e-05
1.34742e-05
1.41768e-05
1.49137e-05
1.56863e-05
1.64963e-05
1.73447e-05
1.82333e-05
1.91633e-05
2.01361e-05
2.11533e-05
2.22162e-05
2.33264e-05
2.44847e-05
2.56929e-05
2.6952e-05
2.8263e-05
2.96274e-05
3.10459e-05
3.25199e-05
3.40492e-05
3.56352e-05
3.72782e-05
3.89787e-05
4.07359e-05
4.25516e-05
4.44263e-05
4.63588e-05
4.83495e-05
5.03977e-05
5.2502e-05
5.46666e-05
5.68945e-05
5.91802e-05
6.15226e-05
6.39162e-05
6.63601e-05
6.8846e-05
7.13697e-05
7.39173e-05
7.64804e-05
7.90558e-05
8.16636e-05
8.43754e-05
8.72697e-05
9.03877e-05
9.37103e-05
9.71985e-05
0.000100843
0.000104648
0.000108676
0.000113072
0.000118356
0.000125992
0.000150239
0.000185162
2.97418e-05
2.89288e-06
1.46026e-08
2.45601e-08
4.39885e-07
1.21471e-06
1.76461e-06
1.98964e-06
2.07679e-06
2.15985e-06
2.26871e-06
2.39307e-06
2.52438e-06
2.66141e-06
2.80519e-06
2.95652e-06
3.11586e-06
3.28365e-06
3.46035e-06
3.64645e-06
3.84246e-06
4.0489e-06
4.26634e-06
4.49536e-06
4.73655e-06
4.99056e-06
5.25805e-06
5.53972e-06
5.83629e-06
6.1485e-06
6.47719e-06
6.82321e-06
7.18725e-06
7.57004e-06
7.97257e-06
8.39591e-06
8.84122e-06
9.30967e-06
9.80248e-06
1.03207e-05
1.08654e-05
1.14376e-05
1.20386e-05
1.26695e-05
1.33318e-05
1.40267e-05
1.47558e-05
1.55202e-05
1.63215e-05
1.71609e-05
1.80401e-05
1.89604e-05
1.99231e-05
2.09299e-05
2.19819e-05
2.30805e-05
2.42272e-05
2.54234e-05
2.667e-05
2.79686e-05
2.93198e-05
3.0725e-05
3.21849e-05
3.37006e-05
3.52725e-05
3.69012e-05
3.85867e-05
4.03302e-05
4.21318e-05
4.39916e-05
4.59091e-05
4.78849e-05
4.99176e-05
5.20093e-05
5.41639e-05
5.6382e-05
5.86554e-05
6.0983e-05
6.33618e-05
6.57911e-05
6.82644e-05
7.07765e-05
7.33175e-05
7.58791e-05
7.84549e-05
8.10651e-05
8.37674e-05
8.66497e-05
8.97621e-05
9.30944e-05
9.66133e-05
0.000100308
0.000104174
0.000108288
0.000112752
0.000118041
0.000125577
0.000148552
0.00018642
3.04131e-05
7.07743e-07
7.79435e-08
1.97155e-08
3.63863e-07
1.1132e-06
1.70361e-06
1.96527e-06
2.06208e-06
2.14137e-06
2.24584e-06
2.36809e-06
2.49821e-06
2.63395e-06
2.77622e-06
2.92593e-06
3.08356e-06
3.24954e-06
3.42432e-06
3.60838e-06
3.80224e-06
4.00641e-06
4.22146e-06
4.44794e-06
4.68646e-06
4.93764e-06
5.20215e-06
5.48067e-06
5.77392e-06
6.08263e-06
6.40764e-06
6.74975e-06
7.10962e-06
7.48803e-06
7.88592e-06
8.30419e-06
8.74392e-06
9.20648e-06
9.69316e-06
1.02052e-05
1.07435e-05
1.13091e-05
1.19031e-05
1.25269e-05
1.31818e-05
1.38688e-05
1.45895e-05
1.53452e-05
1.61375e-05
1.69676e-05
1.78369e-05
1.87469e-05
1.96989e-05
2.06945e-05
2.1735e-05
2.2822e-05
2.39563e-05
2.51402e-05
2.6374e-05
2.76591e-05
2.89963e-05
3.03877e-05
3.18331e-05
3.33342e-05
3.48913e-05
3.6505e-05
3.81747e-05
3.99028e-05
4.16897e-05
4.35352e-05
4.54375e-05
4.73989e-05
4.94162e-05
5.14935e-05
5.36369e-05
5.58448e-05
5.81055e-05
6.04149e-05
6.27762e-05
6.51907e-05
6.76529e-05
7.01537e-05
7.2686e-05
7.52434e-05
7.78185e-05
8.04255e-05
8.31206e-05
8.59887e-05
8.90909e-05
9.24304e-05
9.59763e-05
9.9722e-05
0.000103654
0.000107864
0.000112418
0.000117731
0.000125215
0.000147086
0.00018778
3.10469e-05
1.37608e-06
9.30925e-08
1.55566e-08
2.95195e-07
1.00884e-06
1.63392e-06
1.93533e-06
2.04562e-06
2.1223e-06
2.22207e-06
2.34182e-06
2.4706e-06
2.60501e-06
2.74572e-06
2.8937e-06
3.04952e-06
3.21358e-06
3.38633e-06
3.56824e-06
3.75984e-06
3.96162e-06
4.17412e-06
4.39793e-06
4.63362e-06
4.88182e-06
5.14318e-06
5.41837e-06
5.70811e-06
6.01313e-06
6.33424e-06
6.67218e-06
7.02763e-06
7.40154e-06
7.79478e-06
8.20801e-06
8.6422e-06
9.09869e-06
9.57894e-06
1.00841e-05
1.06154e-05
1.11739e-05
1.17607e-05
1.23769e-05
1.30238e-05
1.37026e-05
1.44148e-05
1.51615e-05
1.59442e-05
1.67644e-05
1.76235e-05
1.85227e-05
1.94635e-05
2.04477e-05
2.14764e-05
2.25511e-05
2.36726e-05
2.48431e-05
2.60632e-05
2.73344e-05
2.86573e-05
3.00334e-05
3.1464e-05
3.29497e-05
3.44913e-05
3.60893e-05
3.77442e-05
3.94579e-05
4.12296e-05
4.30598e-05
4.49471e-05
4.68908e-05
4.88914e-05
5.09561e-05
5.30901e-05
5.52835e-05
5.75241e-05
5.98132e-05
6.21572e-05
6.45575e-05
6.70055e-05
6.94956e-05
7.20177e-05
7.45696e-05
7.71409e-05
7.97452e-05
8.243e-05
8.52842e-05
8.83781e-05
9.17261e-05
9.52954e-05
9.90883e-05
0.000103088
0.000107402
0.000112056
0.000117437
0.000124903
0.000145646
0.000188826
3.1651e-05
2.47429e-06
2.20312e-07
1.89437e-08
2.33524e-07
9.03245e-07
1.55569e-06
1.89922e-06
2.02702e-06
2.10249e-06
2.19725e-06
2.31407e-06
2.44137e-06
2.5744e-06
2.71346e-06
2.85962e-06
3.0135e-06
3.17553e-06
3.34614e-06
3.52578e-06
3.71497e-06
3.9142e-06
4.12404e-06
4.34501e-06
4.57771e-06
4.82275e-06
5.08077e-06
5.35245e-06
5.63848e-06
5.93959e-06
6.2566e-06
6.59008e-06
6.94088e-06
7.31015e-06
7.69863e-06
8.1068e-06
8.53557e-06
8.98616e-06
9.45996e-06
9.95806e-06
1.04818e-05
1.10326e-05
1.16115e-05
1.22197e-05
1.28583e-05
1.35284e-05
1.42315e-05
1.49687e-05
1.57417e-05
1.65516e-05
1.73999e-05
1.82879e-05
1.92173e-05
2.01895e-05
2.12055e-05
2.22673e-05
2.33754e-05
2.45321e-05
2.57379e-05
2.69946e-05
2.83023e-05
2.96631e-05
3.10777e-05
3.2548e-05
3.40728e-05
3.56545e-05
3.7294e-05
3.89931e-05
4.07506e-05
4.2565e-05
4.44345e-05
4.63617e-05
4.83463e-05
5.03967e-05
5.25162e-05
5.46927e-05
5.69132e-05
5.9182e-05
6.15067e-05
6.38911e-05
6.63256e-05
6.88035e-05
7.13148e-05
7.38586e-05
7.64273e-05
7.90245e-05
8.17021e-05
8.4545e-05
8.76247e-05
9.097e-05
9.45592e-05
9.84055e-05
0.000102469
0.000106896
0.000111668
0.000117151
0.000124652
0.000144338
0.000190078
3.22266e-05
3.59859e-07
3.73808e-08
2.09492e-09
1.78994e-07
7.98123e-07
1.46976e-06
1.85646e-06
2.00579e-06
2.08184e-06
2.17139e-06
2.28473e-06
2.41032e-06
2.54191e-06
2.67926e-06
2.8235e-06
2.97534e-06
3.13522e-06
3.30355e-06
3.4808e-06
3.66744e-06
3.864e-06
4.07101e-06
4.289e-06
4.51855e-06
4.76027e-06
5.01479e-06
5.28277e-06
5.56488e-06
5.86189e-06
6.17457e-06
6.50335e-06
6.84935e-06
7.21377e-06
7.5972e-06
8.00012e-06
8.42356e-06
8.8685e-06
9.33596e-06
9.827e-06
1.03431e-05
1.08857e-05
1.14562e-05
1.20557e-05
1.26854e-05
1.33463e-05
1.40399e-05
1.47673e-05
1.55299e-05
1.63291e-05
1.71663e-05
1.80429e-05
1.89602e-05
1.99196e-05
2.09226e-05
2.19709e-05
2.30651e-05
2.42077e-05
2.53986e-05
2.66398e-05
2.79316e-05
2.92768e-05
3.06758e-05
3.21302e-05
3.36382e-05
3.52027e-05
3.68269e-05
3.85115e-05
4.02532e-05
4.20499e-05
4.39015e-05
4.58089e-05
4.77749e-05
4.98121e-05
5.19179e-05
5.40715e-05
5.6267e-05
5.85142e-05
6.08238e-05
6.3193e-05
6.56134e-05
6.80761e-05
7.05782e-05
7.31114e-05
7.56727e-05
7.82696e-05
8.09366e-05
8.37651e-05
8.68263e-05
9.01689e-05
9.37709e-05
9.76633e-05
0.000101797
0.000106339
0.000111239
0.000116873
0.000124446
0.000143107
0.000191245
1.36454e-06
4.62058e-08
1.98231e-08
1.33032e-07
6.95767e-07
1.37745e-06
1.80663e-06
1.98136e-06
2.0603e-06
2.14463e-06
2.25385e-06
2.37741e-06
2.50752e-06
2.64313e-06
2.78536e-06
2.93504e-06
3.09266e-06
3.25861e-06
3.43335e-06
3.61735e-06
3.8111e-06
4.01514e-06
4.23001e-06
4.45627e-06
4.69452e-06
4.94537e-06
5.20949e-06
5.48753e-06
5.78028e-06
6.08839e-06
6.41228e-06
6.75338e-06
7.11272e-06
7.49061e-06
7.8879e-06
8.30579e-06
8.745e-06
9.2062e-06
9.69036e-06
1.0199e-05
1.07335e-05
1.12952e-05
1.18856e-05
1.25058e-05
1.3157e-05
1.38406e-05
1.45575e-05
1.53094e-05
1.60974e-05
1.69229e-05
1.77871e-05
1.8692e-05
1.96386e-05
2.06281e-05
2.16622e-05
2.2742e-05
2.38692e-05
2.50445e-05
2.62699e-05
2.75462e-05
2.88756e-05
3.02587e-05
3.1696e-05
3.31866e-05
3.47345e-05
3.63435e-05
3.80124e-05
3.97362e-05
4.15126e-05
4.33422e-05
4.52304e-05
4.71802e-05
4.92025e-05
5.12894e-05
5.34174e-05
5.55878e-05
5.78157e-05
6.01101e-05
6.24619e-05
6.48672e-05
6.73153e-05
6.98037e-05
7.23282e-05
7.48819e-05
7.74749e-05
8.0135e-05
8.29458e-05
8.59893e-05
8.9321e-05
9.29324e-05
9.6864e-05
0.000101067
0.000105728
0.000110768
0.000116591
0.000124318
0.000142025
0.000192456
1.97928e-07
2.46958e-09
9.4227e-08
5.98063e-07
1.28003e-06
1.74937e-06
1.95304e-06
2.03768e-06
2.11718e-06
2.22172e-06
2.34287e-06
2.47137e-06
2.6052e-06
2.74536e-06
2.89281e-06
3.04808e-06
3.21155e-06
3.38367e-06
3.5649e-06
3.75574e-06
3.9567e-06
4.16833e-06
4.39116e-06
4.62581e-06
4.87285e-06
5.13295e-06
5.40677e-06
5.69509e-06
5.99842e-06
6.31726e-06
6.65343e-06
7.00737e-06
7.37929e-06
7.7706e-06
8.18257e-06
8.61558e-06
9.07018e-06
9.54754e-06
1.0049e-05
1.05758e-05
1.11288e-05
1.17097e-05
1.232e-05
1.29609e-05
1.36339e-05
1.43401e-05
1.50806e-05
1.58567e-05
1.66699e-05
1.75216e-05
1.84132e-05
1.93461e-05
2.03215e-05
2.1341e-05
2.24061e-05
2.35176e-05
2.46768e-05
2.58853e-05
2.71458e-05
2.84601e-05
2.98274e-05
3.12473e-05
3.27189e-05
3.42493e-05
3.58428e-05
3.74938e-05
3.9196e-05
4.09492e-05
4.27578e-05
4.4625e-05
4.65573e-05
4.85651e-05
5.06297e-05
5.27292e-05
5.48764e-05
5.70873e-05
5.93655e-05
6.17016e-05
6.40901e-05
6.65233e-05
6.89953e-05
7.15049e-05
7.40516e-05
7.66393e-05
7.92945e-05
8.20914e-05
8.5109e-05
8.8425e-05
9.2039e-05
9.60014e-05
0.000100267
0.000105055
0.00011025
0.000116304
0.000124259
0.000141219
0.000193793
5.05621e-07
1.17845e-06
1.68452e-06
1.92016e-06
2.01367e-06
2.08919e-06
2.18861e-06
2.30689e-06
2.43364e-06
2.56565e-06
2.70369e-06
2.84882e-06
3.00164e-06
3.16255e-06
3.33195e-06
3.51032e-06
3.69814e-06
3.89591e-06
4.10416e-06
4.32345e-06
4.55436e-06
4.79746e-06
5.05341e-06
5.32284e-06
5.60656e-06
5.90488e-06
6.21866e-06
6.54981e-06
6.89793e-06
7.26365e-06
7.64882e-06
8.05438e-06
8.48044e-06
8.92793e-06
9.39836e-06
9.89267e-06
1.04116e-05
1.09562e-05
1.1528e-05
1.21283e-05
1.27587e-05
1.34208e-05
1.41155e-05
1.48443e-05
1.56082e-05
1.64084e-05
1.72466e-05
1.81243e-05
1.9043e-05
2.00037e-05
2.10079e-05
2.20576e-05
2.31529e-05
2.42952e-05
2.5487e-05
2.67322e-05
2.80314e-05
2.93824e-05
3.07829e-05
3.2235e-05
3.37479e-05
3.53239e-05
3.69534e-05
3.86311e-05
4.03595e-05
4.21456e-05
4.39927e-05
4.59087e-05
4.78994e-05
4.99373e-05
5.20087e-05
5.41345e-05
5.63312e-05
5.85922e-05
6.09098e-05
6.32781e-05
6.56932e-05
6.81491e-05
7.06457e-05
7.31836e-05
7.57646e-05
7.84093e-05
8.11868e-05
8.41804e-05
8.74736e-05
9.10864e-05
9.50799e-05
9.93976e-05
0.000104308
0.000109665
0.000116003
0.000124276
0.000140681
0.000195221
1.07334e-06
1.61202e-06
1.88205e-06
1.98781e-06
2.06064e-06
2.15466e-06
2.26957e-06
2.39435e-06
2.52449e-06
2.66035e-06
2.80309e-06
2.95336e-06
3.1116e-06
3.27819e-06
3.45359e-06
3.63827e-06
3.83274e-06
4.03751e-06
4.25311e-06
4.48013e-06
4.71915e-06
4.97079e-06
5.23569e-06
5.51464e-06
5.80773e-06
6.11661e-06
6.44252e-06
6.78437e-06
7.14388e-06
7.52287e-06
7.92151e-06
8.34e-06
8.77997e-06
9.24299e-06
9.72971e-06
1.02406e-05
1.07767e-05
1.13394e-05
1.193e-05
1.25501e-05
1.32011e-05
1.38842e-05
1.46008e-05
1.53519e-05
1.61388e-05
1.6963e-05
1.7826e-05
1.87298e-05
1.96753e-05
2.06641e-05
2.16974e-05
2.27758e-05
2.39006e-05
2.50759e-05
2.63062e-05
2.75897e-05
2.89222e-05
3.03015e-05
3.1733e-05
3.32279e-05
3.47833e-05
3.63886e-05
3.80401e-05
3.97447e-05
4.15084e-05
4.33355e-05
4.52361e-05
4.72058e-05
4.92113e-05
5.12555e-05
5.33631e-05
5.55433e-05
5.77861e-05
6.00838e-05
6.24308e-05
6.4827e-05
6.7265e-05
6.97455e-05
7.22734e-05
7.48476e-05
7.74855e-05
8.02462e-05
8.32092e-05
8.64748e-05
9.00731e-05
9.40844e-05
9.84588e-05
0.000103486
0.000109004
0.000115673
0.000124358
0.000140515
0.000196926
1.53153e-06
1.83762e-06
1.95938e-06
2.03128e-06
2.11972e-06