/*--------------------------------*- C++ -*----------------------------------*\
  =========                 |
  \\      /  F ield         | OpenFOAM: The Open Source CFD Toolbox
   \\    /   O peration     | Website:  https://openfoam.org
    \\  /    A nd           | Version:  9
     \\/     M anipulation  |
\*---------------------------------------------------------------------------*/
FoamFile
{
    format      ascii;
    class       volScalarField;
    location    "1500";
    object      nut;
}
// * * * * * * * * * * * * * * * * * * * * * * * * * * * * * * * * * * * * * //

dimensions      [0 2 -1 0 0 0 0];

internalField   nonuniform List<scalar> 
13538
(
8.78848e-07
2.68504e-07
7.95116e-07
8.21292e-07
8.09741e-07
8.0728e-07
8.08335e-07
8.09001e-07
8.09289e-07
8.0957e-07
8.09893e-07
8.10237e-07
8.106e-07
8.10987e-07
8.11396e-07
8.11829e-07
8.12289e-07
8.12776e-07
8.13293e-07
8.1384e-07
8.14418e-07
8.1503e-07
8.15678e-07
8.16364e-07
8.17087e-07
8.17851e-07
8.18655e-07
8.19501e-07
8.2039e-07
8.21326e-07
8.22308e-07
8.23337e-07
8.24416e-07
8.25544e-07
8.26724e-07
8.27955e-07
8.29237e-07
8.30571e-07
8.31957e-07
8.33396e-07
8.34889e-07
8.36435e-07
8.38034e-07
8.39687e-07
8.41392e-07
8.43147e-07
8.44954e-07
8.46813e-07
8.48721e-07
8.50678e-07
8.52681e-07
8.54729e-07
8.56822e-07
8.58958e-07
8.61135e-07
8.63351e-07
8.65604e-07
8.67894e-07
8.70218e-07
8.72568e-07
8.74945e-07
8.77344e-07
8.7976e-07
8.82191e-07
8.84633e-07
8.87086e-07
8.89546e-07
8.92006e-07
8.94458e-07
8.96899e-07
8.99328e-07
9.01746e-07
9.04155e-07
9.06548e-07
9.08926e-07
9.11291e-07
9.1364e-07
9.15885e-07
9.17629e-07
9.18099e-07
9.16578e-07
9.12821e-07
9.07017e-07
8.99818e-07
8.93197e-07
8.89492e-07
8.89419e-07
8.91919e-07
8.95744e-07
9.0018e-07
9.05063e-07
9.10371e-07
9.17349e-07
9.26803e-07
9.43995e-07
9.89363e-07
1.11862e-06
1.27976e-06
2.09366e-07
8.89986e-07
8.23218e-06
4.89338e-07
8.25853e-07
8.14495e-07
8.10654e-07
8.11378e-07
8.12155e-07
8.12459e-07
8.12701e-07
8.12984e-07
8.13296e-07
8.13627e-07
8.1398e-07
8.14356e-07
8.14758e-07
8.15185e-07
8.15639e-07
8.16123e-07
8.16636e-07
8.17181e-07
8.1776e-07
8.18373e-07
8.19023e-07
8.1971e-07
8.20437e-07
8.21203e-07
8.22012e-07
8.22863e-07
8.23759e-07
8.24699e-07
8.25687e-07
8.26723e-07
8.27807e-07
8.2894e-07
8.30123e-07
8.31357e-07
8.32642e-07
8.33978e-07
8.35366e-07
8.36806e-07
8.38298e-07
8.39842e-07
8.41437e-07
8.43084e-07
8.44782e-07
8.46529e-07
8.48327e-07
8.50172e-07
8.52065e-07
8.54005e-07
8.55989e-07
8.58016e-07
8.60086e-07
8.62196e-07
8.64343e-07
8.66526e-07
8.68743e-07
8.7099e-07
8.73265e-07
8.75565e-07
8.77888e-07
8.80229e-07
8.82584e-07
8.8495e-07
8.87325e-07
8.89707e-07
8.9209e-07
8.94467e-07
8.96835e-07
8.99194e-07
9.01544e-07
9.03888e-07
9.06219e-07
9.08534e-07
9.1084e-07
9.13137e-07
9.15346e-07
9.17094e-07
9.17642e-07
9.16271e-07
9.12721e-07
9.0716e-07
9.00058e-07
8.93174e-07
8.88889e-07
8.88257e-07
8.90436e-07
8.94108e-07
8.98464e-07
9.03313e-07
9.08518e-07
9.15363e-07
9.24563e-07
9.40405e-07
9.78114e-07
1.09334e-06
1.28403e-06
2.18394e-07
8.95488e-07
6.65473e-07
5.86223e-07
8.30223e-07
8.16356e-07
8.10413e-07
8.10657e-07
8.1166e-07
8.12073e-07
8.12323e-07
8.1261e-07
8.12931e-07
8.13274e-07
8.13637e-07
8.14023e-07
8.14433e-07
8.14868e-07
8.1533e-07
8.1582e-07
8.1634e-07
8.16891e-07
8.17475e-07
8.18093e-07
8.18746e-07
8.19437e-07
8.20167e-07
8.20936e-07
8.21746e-07
8.22599e-07
8.23496e-07
8.24437e-07
8.25425e-07
8.2646e-07
8.27544e-07
8.28677e-07
8.29859e-07
8.31092e-07
8.32375e-07
8.33709e-07
8.35095e-07
8.36533e-07
8.38022e-07
8.39564e-07
8.41157e-07
8.42802e-07
8.44497e-07
8.46242e-07
8.48037e-07
8.4988e-07
8.51771e-07
8.53709e-07
8.55691e-07
8.57717e-07
8.59785e-07
8.61892e-07
8.64038e-07
8.6622e-07
8.68436e-07
8.70683e-07
8.72959e-07
8.75259e-07
8.77582e-07
8.79925e-07
8.82281e-07
8.84647e-07
8.87019e-07
8.89393e-07
8.91764e-07
8.9413e-07
8.96484e-07
8.98829e-07
9.01164e-07
9.0349e-07
9.05806e-07
9.08106e-07
9.10396e-07
9.12682e-07
9.14884e-07
9.16639e-07
9.17221e-07
9.1592e-07
9.12483e-07
9.07088e-07
9.00096e-07
8.93141e-07
8.88584e-07
8.87643e-07
8.89629e-07
8.93214e-07
8.97533e-07
9.02369e-07
9.0753e-07
9.14292e-07
9.23332e-07
9.38702e-07
9.72591e-07
1.07686e-06
1.2807e-06
2.26826e-07
8.98603e-07
1.32857e-07
1.17101e-06
8.35298e-07
8.19417e-07
8.11384e-07
8.10857e-07
8.12008e-07
8.12561e-07
8.1282e-07
8.13095e-07
8.13413e-07
8.13754e-07
8.14115e-07
8.14498e-07
8.14905e-07
8.15336e-07
8.15794e-07
8.16279e-07
8.16794e-07
8.17339e-07
8.17917e-07
8.18528e-07
8.19174e-07
8.19857e-07
8.20578e-07
8.21339e-07
8.2214e-07
8.22983e-07
8.23869e-07
8.248e-07
8.25776e-07
8.268e-07
8.27871e-07
8.28991e-07
8.3016e-07
8.31379e-07
8.32649e-07
8.33969e-07
8.35341e-07
8.36764e-07
8.38239e-07
8.39765e-07
8.41342e-07
8.4297e-07
8.44649e-07
8.46378e-07
8.48157e-07
8.49983e-07
8.51857e-07
8.53778e-07
8.55743e-07
8.57752e-07
8.59802e-07
8.61893e-07
8.64021e-07
8.66186e-07
8.68385e-07
8.70615e-07
8.72873e-07
8.75155e-07
8.77461e-07
8.79786e-07
8.82125e-07
8.84475e-07
8.86832e-07
8.89192e-07
8.91551e-07
8.93904e-07
8.96249e-07
8.98582e-07
9.00901e-07
9.03206e-07
9.05495e-07
9.07769e-07
9.10033e-07
9.12289e-07
9.14464e-07
9.16205e-07
9.16807e-07
9.15567e-07
9.12239e-07
9.0702e-07
9.00161e-07
8.93144e-07
8.88301e-07
8.87017e-07
8.88781e-07
8.92263e-07
8.96533e-07
9.01328e-07
9.06431e-07
9.13088e-07
9.2192e-07
9.36782e-07
9.67503e-07
1.061e-06
1.27428e-06
2.34357e-07
9.0066e-07
1.43015e-07
1.59699e-06
8.41439e-07
8.2249e-07
8.12451e-07
8.10891e-07
8.12086e-07
8.12816e-07
8.13107e-07
8.13371e-07
8.13684e-07
8.14025e-07
8.14386e-07
8.14768e-07
8.15174e-07
8.15604e-07
8.16059e-07
8.16542e-07
8.17053e-07
8.17595e-07
8.18168e-07
8.18775e-07
8.19416e-07
8.20094e-07
8.20809e-07
8.21563e-07
8.22357e-07
8.23193e-07
8.24072e-07
8.24994e-07
8.25962e-07
8.26977e-07
8.28038e-07
8.29148e-07
8.30307e-07
8.31515e-07
8.32774e-07
8.34083e-07
8.35443e-07
8.36854e-07
8.38316e-07
8.3983e-07
8.41395e-07
8.43011e-07
8.44676e-07
8.46393e-07
8.48158e-07
8.49971e-07
8.51831e-07
8.53739e-07
8.5569e-07
8.57685e-07
8.59723e-07
8.618e-07
8.63915e-07
8.66066e-07
8.68252e-07
8.70468e-07
8.72713e-07
8.74984e-07
8.77277e-07
8.79588e-07
8.81915e-07
8.84253e-07
8.86598e-07
8.88947e-07
8.91292e-07
8.93633e-07
8.95966e-07
8.98289e-07
9.006e-07
9.02898e-07
9.05181e-07
9.07451e-07
9.0971e-07
9.11952e-07
9.14106e-07
9.1583e-07
9.16432e-07
9.15225e-07
9.11979e-07
9.06907e-07
9.00186e-07
8.93156e-07
8.88087e-07
8.86498e-07
8.88052e-07
8.91437e-07
8.95664e-07
9.00415e-07
9.05462e-07
9.12011e-07
9.20625e-07
9.35075e-07
9.63584e-07
1.04734e-06
1.26488e-06
2.40449e-07
9.02172e-07
8.06e-07
1.09137e-06
8.43351e-07
8.25757e-07
8.13944e-07
8.11094e-07
8.12156e-07
8.13079e-07
8.13432e-07
8.13687e-07
8.13993e-07
8.14333e-07
8.14693e-07
8.15074e-07
8.15478e-07
8.15905e-07
8.16358e-07
8.16838e-07
8.17346e-07
8.17884e-07
8.18452e-07
8.19054e-07
8.19689e-07
8.20361e-07
8.21069e-07
8.21816e-07
8.22603e-07
8.23431e-07
8.24301e-07
8.25214e-07
8.26173e-07
8.27177e-07
8.28228e-07
8.29328e-07
8.30475e-07
8.31672e-07
8.32919e-07
8.34215e-07
8.35562e-07
8.36961e-07
8.3841e-07
8.39911e-07
8.41462e-07
8.43064e-07
8.44716e-07
8.46417e-07
8.48168e-07
8.49967e-07
8.51813e-07
8.53706e-07
8.55644e-07
8.57624e-07
8.59647e-07
8.6171e-07
8.6381e-07
8.65947e-07
8.68119e-07
8.70321e-07
8.72552e-07
8.74809e-07
8.77088e-07
8.79386e-07
8.81699e-07
8.84024e-07
8.86355e-07
8.88691e-07
8.91025e-07
8.93354e-07
8.95675e-07
8.97987e-07
9.00287e-07
9.02576e-07
9.0485e-07
9.0711e-07
9.09361e-07
9.11599e-07
9.13756e-07
9.15492e-07
9.16116e-07
9.14946e-07
9.1177e-07
9.06797e-07
9.00209e-07
8.93196e-07
8.87931e-07
8.86038e-07
8.87368e-07
8.9066e-07
8.9486e-07
8.99575e-07
9.04579e-07
9.10997e-07
9.19386e-07
9.33371e-07
9.60313e-07
1.03553e-06
1.25379e-06
2.46496e-07
9.03269e-07
1.41481e-06
1.81424e-06
8.41041e-07
8.28388e-07
8.15781e-07
8.1149e-07
8.12188e-07
8.13289e-07
8.13738e-07
8.13992e-07
8.14287e-07
8.14624e-07
8.14984e-07
8.15363e-07
8.15765e-07
8.1619e-07
8.1664e-07
8.17117e-07
8.17621e-07
8.18154e-07
8.18718e-07
8.19314e-07
8.19944e-07
8.20609e-07
8.21311e-07
8.2205e-07
8.22829e-07
8.23649e-07
8.2451e-07
8.25415e-07
8.26364e-07
8.27358e-07
8.28399e-07
8.29487e-07
8.30623e-07
8.31808e-07
8.33043e-07
8.34327e-07
8.35661e-07
8.37047e-07
8.38483e-07
8.3997e-07
8.41507e-07
8.43096e-07
8.44734e-07
8.46421e-07
8.48158e-07
8.49942e-07
8.51774e-07
8.53652e-07
8.55575e-07
8.57541e-07
8.59549e-07
8.61597e-07
8.63685e-07
8.65808e-07
8.67966e-07
8.70154e-07
8.7237e-07
8.74613e-07
8.76879e-07
8.79165e-07
8.81465e-07
8.83777e-07
8.86096e-07
8.88419e-07
8.9074e-07
8.93058e-07
8.95369e-07
8.9767e-07
8.99959e-07
9.02238e-07
9.04503e-07
9.06756e-07
9.08999e-07
9.11231e-07
9.13383e-07
9.15114e-07
9.15747e-07
9.14618e-07
9.11531e-07
9.06705e-07
9.00257e-07
8.93283e-07
8.87835e-07
8.85644e-07
8.86744e-07
8.89938e-07
8.9412e-07
8.98813e-07
9.03771e-07
9.10066e-07
9.18239e-07
9.31737e-07
9.57531e-07
1.02488e-06
1.24127e-06
2.51085e-07
9.04186e-07
8.13195e-08
1.56568e-06
8.3862e-07
8.31064e-07
8.1788e-07
8.12118e-07
8.12226e-07
8.13454e-07
8.14032e-07
8.14297e-07
8.14579e-07
8.14912e-07
8.1527e-07
8.15648e-07
8.16048e-07
8.1647e-07
8.16917e-07
8.1739e-07
8.1789e-07
8.18419e-07
8.18978e-07
8.19569e-07
8.20192e-07
8.20851e-07
8.21545e-07
8.22277e-07
8.23048e-07
8.23859e-07
8.24712e-07
8.25607e-07
8.26546e-07
8.2753e-07
8.28559e-07
8.29636e-07
8.30761e-07
8.31934e-07
8.33156e-07
8.34428e-07
8.3575e-07
8.37121e-07
8.38544e-07
8.40017e-07
8.4154e-07
8.43114e-07
8.44738e-07
8.46411e-07
8.48133e-07
8.49903e-07
8.5172e-07
8.53583e-07
8.55491e-07
8.57443e-07
8.59437e-07
8.61471e-07
8.63544e-07
8.65652e-07
8.67795e-07
8.6997e-07
8.72174e-07
8.74403e-07
8.76656e-07
8.78928e-07
8.81215e-07
8.83514e-07
8.8582e-07
8.88131e-07
8.90441e-07
8.92747e-07
8.95045e-07
8.97336e-07
8.99615e-07
9.01883e-07
9.0414e-07
9.06386e-07
9.08623e-07
9.10848e-07
9.12991e-07
9.14704e-07
9.15326e-07
9.14216e-07
9.11203e-07
9.06514e-07
9.00249e-07
8.93372e-07
8.87805e-07
8.85327e-07
8.86176e-07
8.89253e-07
8.93416e-07
8.98092e-07
9.03036e-07
9.09213e-07
9.17179e-07
9.30145e-07
9.55048e-07
1.01571e-06
1.22817e-06
2.56284e-07
9.04977e-07
2.83914e-06
1.45269e-06
8.3749e-07
8.3457e-07
8.20225e-07
8.12938e-07
8.12291e-07
8.13575e-07
8.14306e-07
8.146e-07
8.14868e-07
8.15193e-07
8.1555e-07
8.15927e-07
8.16323e-07
8.16743e-07
8.17186e-07
8.17655e-07
8.18151e-07
8.18676e-07
8.1923e-07
8.19814e-07
8.20432e-07
8.21083e-07
8.21771e-07
8.22495e-07
8.23257e-07
8.2406e-07
8.24903e-07
8.25789e-07
8.26718e-07
8.27691e-07
8.28709e-07
8.29774e-07
8.30886e-07
8.32047e-07
8.33257e-07
8.34516e-07
8.35824e-07
8.37182e-07
8.38591e-07
8.4005e-07
8.41559e-07
8.43119e-07
8.44728e-07
8.46386e-07
8.48093e-07
8.49848e-07
8.51649e-07
8.53498e-07
8.55391e-07
8.57328e-07
8.59307e-07
8.61327e-07
8.63386e-07
8.65479e-07
8.67608e-07
8.69769e-07
8.71959e-07
8.74176e-07
8.76415e-07
8.78673e-07
8.80947e-07
8.83234e-07
8.85528e-07
8.87827e-07
8.90125e-07
8.92419e-07
8.94708e-07
8.96988e-07
8.99257e-07
9.01515e-07
9.03762e-07
9.06e-07
9.0823e-07
9.10448e-07
9.12576e-07
9.14253e-07
9.14848e-07
9.13746e-07
9.10805e-07
9.06246e-07
9.00152e-07
8.93393e-07
8.87764e-07
8.85063e-07
8.85682e-07
8.88622e-07
8.92746e-07
8.97412e-07
9.02347e-07
9.0842e-07
9.16215e-07
9.2863e-07
9.52745e-07
1.00762e-06
1.2144e-06
2.59157e-07
9.05702e-07
9.8726e-08
4.45349e-07
8.54488e-07
8.39817e-07
8.22815e-07
8.13897e-07
8.12399e-07
8.13658e-07
8.14558e-07
8.14901e-07
8.15156e-07
8.15471e-07
8.15825e-07
8.162e-07
8.16594e-07
8.1701e-07
8.1745e-07
8.17915e-07
8.18407e-07
8.18926e-07
8.19475e-07
8.20054e-07
8.20665e-07
8.21309e-07
8.21989e-07
8.22705e-07
8.23459e-07
8.24253e-07
8.25087e-07
8.25962e-07
8.26881e-07
8.27843e-07
8.28849e-07
8.29902e-07
8.31001e-07
8.32149e-07
8.33345e-07
8.34591e-07
8.35886e-07
8.3723e-07
8.38625e-07
8.40069e-07
8.41563e-07
8.43108e-07
8.44702e-07
8.46346e-07
8.48038e-07
8.49777e-07
8.51564e-07
8.53397e-07
8.55275e-07
8.57196e-07
8.59161e-07
8.61166e-07
8.6321e-07
8.65289e-07
8.67404e-07
8.69551e-07
8.71727e-07
8.7393e-07
8.76156e-07
8.78401e-07
8.80663e-07
8.82938e-07
8.85219e-07
8.87504e-07
8.89792e-07
8.92076e-07
8.94352e-07
8.96621e-07
8.9888e-07
9.01129e-07
9.03368e-07
9.05597e-07
9.07821e-07
9.10031e-07
9.12145e-07
9.13791e-07
9.14361e-07
9.13256e-07
9.10367e-07
9.05919e-07
8.9998e-07
8.93358e-07
8.87677e-07
8.8477e-07
8.85198e-07
8.88038e-07
8.92131e-07
8.96776e-07
9.01701e-07
9.07675e-07
9.15324e-07
9.27197e-07
9.50509e-07
1.00062e-06
1.20063e-06
2.62396e-07
9.06224e-07
9.41146e-07
7.89655e-07
8.89974e-07
8.46293e-07
8.25703e-07
8.15022e-07
8.12563e-07
8.13708e-07
8.14782e-07
8.15199e-07
8.15447e-07
8.15748e-07
8.16098e-07
8.1647e-07
8.16861e-07
8.17274e-07
8.1771e-07
8.18171e-07
8.18658e-07
8.19172e-07
8.19715e-07
8.20288e-07
8.20892e-07
8.2153e-07
8.22201e-07
8.22909e-07
8.23655e-07
8.24439e-07
8.25263e-07
8.26128e-07
8.27036e-07
8.27987e-07
8.28981e-07
8.30021e-07
8.31106e-07
8.3224e-07
8.33422e-07
8.34654e-07
8.35935e-07
8.37265e-07
8.38645e-07
8.40075e-07
8.41554e-07
8.43084e-07
8.44662e-07
8.4629e-07
8.47967e-07
8.49691e-07
8.51462e-07
8.5328e-07
8.55142e-07
8.57048e-07
8.58997e-07
8.60987e-07
8.63017e-07
8.65082e-07
8.67182e-07
8.69314e-07
8.71477e-07
8.73666e-07
8.75879e-07
8.78112e-07
8.8036e-07
8.82621e-07
8.84892e-07
8.87165e-07
8.89441e-07
8.91714e-07
8.9398e-07
8.96239e-07
8.98487e-07
9.00726e-07
9.02957e-07
9.0518e-07
9.07395e-07
9.09597e-07
9.11694e-07
9.13299e-07
9.13833e-07
9.12715e-07
9.09858e-07
9.05521e-07
8.99765e-07
8.93282e-07
8.8758e-07
8.84478e-07
8.84688e-07
8.87421e-07
8.91518e-07
8.96179e-07
9.01111e-07
9.0698e-07
9.14498e-07
9.25865e-07
9.48383e-07
9.94264e-07
1.18679e-06
2.65591e-07
9.06774e-07
1.31302e-06
1.64439e-07
9.26676e-07
8.53145e-07
8.29019e-07
8.16454e-07
8.12818e-07
8.13721e-07
8.14969e-07
8.15492e-07
8.15741e-07
8.16025e-07
8.16368e-07
8.16737e-07
8.17126e-07
8.17535e-07
8.17967e-07
8.18423e-07
8.18905e-07
8.19413e-07
8.1995e-07
8.20517e-07
8.21114e-07
8.21743e-07
8.22407e-07
8.23106e-07
8.23842e-07
8.24617e-07
8.2543e-07
8.26285e-07
8.27181e-07
8.2812e-07
8.29103e-07
8.30131e-07
8.31203e-07
8.32322e-07
8.33489e-07
8.34705e-07
8.35971e-07
8.37287e-07
8.38652e-07
8.40067e-07
8.41531e-07
8.43046e-07
8.44609e-07
8.46221e-07
8.47881e-07
8.4959e-07
8.51345e-07
8.53146e-07
8.54993e-07
8.56883e-07
8.58817e-07
8.60791e-07
8.62805e-07
8.64855e-07
8.66941e-07
8.69059e-07
8.71208e-07
8.73384e-07
8.75584e-07
8.77803e-07
8.80038e-07
8.82288e-07
8.84546e-07
8.86809e-07
8.89073e-07
8.91334e-07
8.9359e-07
8.95839e-07
8.98078e-07
9.00309e-07
9.0253e-07
9.04744e-07
9.06951e-07
9.09145e-07
9.11216e-07
9.12774e-07
9.13257e-07
9.12119e-07
9.09293e-07
9.05073e-07
8.99493e-07
8.93186e-07
8.87493e-07
8.84201e-07
8.84178e-07
8.86786e-07
8.90878e-07
8.95586e-07
9.00563e-07
9.06346e-07
9.13744e-07
9.24631e-07
9.46323e-07
9.88576e-07
1.17302e-06
2.67461e-07
9.072e-07
2.26777e-07
1.30719e-07
9.74733e-07
8.5587e-07
8.32649e-07
8.18318e-07
8.13215e-07
8.13695e-07
8.15103e-07
8.15768e-07
8.16035e-07
8.16302e-07
8.16634e-07
8.17e-07
8.17385e-07
8.17789e-07
8.18216e-07
8.18668e-07
8.19144e-07
8.19646e-07
8.20177e-07
8.20736e-07
8.21326e-07
8.21947e-07
8.22602e-07
8.23291e-07
8.24018e-07
8.24782e-07
8.25585e-07
8.26428e-07
8.27312e-07
8.2824e-07
8.29211e-07
8.30228e-07
8.31289e-07
8.32394e-07
8.33546e-07
8.34746e-07
8.35997e-07
8.37297e-07
8.38647e-07
8.40046e-07
8.41495e-07
8.42993e-07
8.4454e-07
8.46136e-07
8.47781e-07
8.49473e-07
8.51212e-07
8.52997e-07
8.54827e-07
8.56702e-07
8.58619e-07
8.60578e-07
8.62577e-07
8.64612e-07
8.66683e-07
8.68786e-07
8.7092e-07
8.73082e-07
8.75268e-07
8.77475e-07
8.79699e-07
8.81935e-07
8.8418e-07
8.86432e-07
8.88686e-07
8.90936e-07
8.93181e-07
8.9542e-07
8.97651e-07
8.99873e-07
9.02086e-07
9.04291e-07
9.06491e-07
9.08676e-07
9.10728e-07
9.12246e-07
9.12642e-07
9.11484e-07
9.08711e-07
9.04594e-07
8.99204e-07
8.93083e-07
8.87427e-07
8.83956e-07
8.83678e-07
8.86131e-07
8.90209e-07
8.94965e-07
9.00018e-07
9.05766e-07
9.13067e-07
9.23507e-07
9.44339e-07
9.83494e-07
1.15926e-06
2.70006e-07
9.0751e-07
3.09839e-07
2.59403e-06
8.39171e-07
8.59561e-07
8.3667e-07
8.20539e-07
8.13791e-07
8.13651e-07
8.1517e-07
8.16011e-07
8.16321e-07
8.16573e-07
8.16891e-07
8.17251e-07
8.17631e-07
8.18031e-07
8.18453e-07
8.18898e-07
8.19368e-07
8.19864e-07
8.20388e-07
8.20939e-07
8.21521e-07
8.22134e-07
8.22779e-07
8.23459e-07
8.24175e-07
8.24929e-07
8.25721e-07
8.26552e-07
8.27424e-07
8.28339e-07
8.293e-07
8.30307e-07
8.3136e-07
8.32455e-07
8.33594e-07
8.34779e-07
8.36013e-07
8.37296e-07
8.38629e-07
8.40012e-07
8.41444e-07
8.42927e-07
8.44457e-07
8.46037e-07
8.47664e-07
8.4934e-07
8.51062e-07
8.52831e-07
8.54645e-07
8.56503e-07
8.58405e-07
8.60348e-07
8.6233e-07
8.64349e-07
8.66406e-07
8.68495e-07
8.70615e-07
8.72761e-07
8.74934e-07
8.77127e-07
8.79338e-07
8.81563e-07
8.83797e-07
8.86037e-07
8.88279e-07
8.9052e-07
8.92755e-07
8.94984e-07
8.97206e-07
8.99418e-07
9.01623e-07
9.03821e-07
9.06012e-07
9.0819e-07
9.10221e-07
9.11701e-07
9.12053e-07
9.10854e-07
9.08102e-07
9.0407e-07
8.98893e-07
8.93004e-07
8.87414e-07
8.83765e-07
8.832e-07
8.85462e-07
8.89505e-07
8.94314e-07
8.99458e-07
9.052e-07
9.12446e-07
9.22492e-07
9.42475e-07
9.7891e-07
1.14565e-06
2.71154e-07
9.07941e-07
1.67153e-06
4.36482e-06
1.13246e-06
8.68182e-07
8.41175e-07
8.2307e-07
8.14578e-07
8.13629e-07
8.15172e-07
8.16206e-07
8.16584e-07
8.16828e-07
8.17131e-07
8.17484e-07
8.17859e-07
8.18254e-07
8.1867e-07
8.1911e-07
8.19573e-07
8.20063e-07
8.20579e-07
8.21122e-07
8.21696e-07
8.223e-07
8.22937e-07
8.23607e-07
8.24313e-07
8.25055e-07
8.25836e-07
8.26656e-07
8.27516e-07
8.28418e-07
8.29367e-07
8.30364e-07
8.31408e-07
8.32497e-07
8.33627e-07
8.34801e-07
8.36019e-07
8.37285e-07
8.386e-07
8.39966e-07
8.41381e-07
8.42846e-07
8.4436e-07
8.45923e-07
8.47533e-07
8.49192e-07
8.50897e-07
8.52649e-07
8.54447e-07
8.56288e-07
8.58173e-07
8.60099e-07
8.62065e-07
8.64069e-07
8.6611e-07
8.68183e-07
8.70288e-07
8.72421e-07
8.7458e-07
8.76762e-07
8.78958e-07
8.8117e-07
8.83392e-07
8.85621e-07
8.87853e-07
8.90083e-07
8.92309e-07
8.94528e-07
8.96742e-07
8.98946e-07
9.01141e-07
9.03333e-07
9.05518e-07
9.07685e-07
9.0969e-07
9.11136e-07
9.11422e-07
9.10183e-07
9.07474e-07
9.03545e-07
8.98576e-07
8.92937e-07
8.87436e-07
8.83612e-07
8.82739e-07
8.84779e-07
8.88768e-07
8.9363e-07
8.98877e-07
9.04632e-07
9.11857e-07
9.21578e-07
9.40695e-07
9.74746e-07
1.13284e-06
2.71881e-07
9.083e-07
1.03067e-06
1.2457e-06
8.43366e-09
8.76712e-07
8.46459e-07
8.2602e-07
8.15636e-07
8.13682e-07
8.15132e-07
8.16353e-07
8.16822e-07
8.17066e-07
8.17355e-07
8.17699e-07
8.1807e-07
8.1846e-07
8.1887e-07
8.19304e-07
8.19762e-07
8.20244e-07
8.20754e-07
8.2129e-07
8.21856e-07
8.22452e-07
8.2308e-07
8.23741e-07
8.24437e-07
8.25169e-07
8.25939e-07
8.26748e-07
8.27597e-07
8.28486e-07
8.2942e-07
8.30402e-07
8.31434e-07
8.32515e-07
8.3364e-07
8.34806e-07
8.36013e-07
8.37263e-07
8.38562e-07
8.39909e-07
8.41306e-07
8.42753e-07
8.4425e-07
8.45795e-07
8.47388e-07
8.49029e-07
8.50716e-07
8.52451e-07
8.54231e-07
8.56056e-07
8.57923e-07
8.59833e-07
8.61783e-07
8.63771e-07
8.65795e-07
8.67854e-07
8.69944e-07
8.72062e-07
8.74207e-07
8.76375e-07
8.7856e-07
8.80759e-07
8.82969e-07
8.85187e-07
8.87406e-07
8.89625e-07
8.91841e-07
8.94051e-07
8.96255e-07
8.98452e-07
9.0064e-07
9.02823e-07
9.05006e-07
9.07167e-07
9.09138e-07
9.10542e-07
9.10759e-07
9.09483e-07
9.06826e-07
9.03017e-07
8.98294e-07
8.92885e-07
8.87478e-07
8.83486e-07
8.82286e-07
8.84075e-07
8.8799e-07
8.9289e-07
8.98257e-07
9.04065e-07
9.11308e-07
9.20756e-07
9.39004e-07
9.7101e-07
1.12082e-06
2.73634e-07
9.08637e-07
2.54912e-05
3.65119e-07
9.06231e-07
8.83527e-07
8.52178e-07
8.29463e-07
8.17032e-07
8.13863e-07
8.15083e-07
8.16473e-07
8.17047e-07
8.17299e-07
8.17573e-07
8.1791e-07
8.18276e-07
8.18662e-07
8.19068e-07
8.19497e-07
8.19949e-07
8.20426e-07
8.20929e-07
8.21459e-07
8.22017e-07
8.22605e-07
8.23225e-07
8.23877e-07
8.24564e-07
8.25287e-07
8.26046e-07
8.26844e-07
8.27682e-07
8.2856e-07
8.29476e-07
8.30436e-07
8.31447e-07
8.32512e-07
8.33628e-07
8.34788e-07
8.35988e-07
8.37228e-07
8.38512e-07
8.39843e-07
8.41221e-07
8.42649e-07
8.44126e-07
8.45653e-07
8.47228e-07
8.48851e-07
8.5052e-07
8.52237e-07
8.53999e-07
8.55806e-07
8.57657e-07
8.59549e-07
8.61482e-07
8.63453e-07
8.65461e-07
8.67504e-07
8.69579e-07
8.71683e-07
8.73814e-07
8.75968e-07
8.7814e-07
8.80327e-07
8.82525e-07
8.8473e-07
8.86938e-07
8.89146e-07
8.91351e-07
8.93551e-07
8.95747e-07
8.97936e-07
9.00119e-07
9.02299e-07
9.04481e-07
9.06635e-07
9.08578e-07
9.09908e-07
9.10044e-07
9.08747e-07
9.06157e-07
9.02508e-07
8.98008e-07
8.92838e-07
8.87519e-07
8.83362e-07
8.81838e-07
8.83352e-07
8.87169e-07
8.92111e-07
8.97603e-07
9.03484e-07
9.10785e-07
9.20001e-07
9.37458e-07
9.67616e-07
1.10945e-06
2.73206e-07
9.08946e-07
4.81257e-07
1.36068e-06
9.37993e-07
8.92132e-07
8.58301e-07
8.33309e-07
8.18776e-07
8.14206e-07
8.15054e-07
8.16589e-07
8.17287e-07
8.17552e-07
8.17811e-07
8.18138e-07
8.18501e-07
8.18883e-07
8.19285e-07
8.19709e-07
8.20155e-07
8.20627e-07
8.21123e-07
8.21646e-07
8.22198e-07
8.22778e-07
8.2339e-07
8.24033e-07
8.2471e-07
8.25423e-07
8.26171e-07
8.26958e-07
8.27785e-07
8.2865e-07
8.29548e-07
8.30484e-07
8.31466e-07
8.32504e-07
8.33599e-07
8.34745e-07
8.35937e-07
8.37171e-07
8.38446e-07
8.39763e-07
8.41124e-07
8.42534e-07
8.43992e-07
8.45499e-07
8.47055e-07
8.48659e-07
8.5031e-07
8.52008e-07
8.53752e-07
8.5554e-07
8.57372e-07
8.59247e-07
8.61163e-07
8.63117e-07
8.65109e-07
8.67136e-07
8.69195e-07
8.71284e-07
8.73401e-07
8.75541e-07
8.77699e-07
8.79873e-07
8.82059e-07
8.8425e-07
8.86445e-07
8.88641e-07
8.90837e-07
8.93028e-07
8.95218e-07
8.974e-07
8.99578e-07
9.01757e-07
9.03939e-07
9.06087e-07
9.0799e-07
9.09226e-07
9.0929e-07
9.07994e-07
9.05493e-07
9.02e-07
8.97725e-07
8.92769e-07
8.87531e-07
8.83228e-07
8.81386e-07
8.82606e-07
8.863e-07
8.9127e-07
8.96897e-07
9.02879e-07
9.10278e-07
9.19344e-07
9.36088e-07
9.64444e-07
1.09985e-06
2.7448e-07
9.0914e-07
4.31225e-07
1.6937e-05
5.59012e-07
8.96277e-07
8.64341e-07
8.3737e-07
8.20829e-07
8.14736e-07
8.15058e-07
8.16705e-07
8.17553e-07
8.17846e-07
8.18084e-07
8.18398e-07
8.18757e-07
8.19136e-07
8.19532e-07
8.1995e-07
8.20391e-07
8.20856e-07
8.21345e-07
8.21861e-07
8.22404e-07
8.22976e-07
8.23578e-07
8.24211e-07
8.24878e-07
8.25579e-07
8.26316e-07
8.2709e-07
8.27904e-07
8.28755e-07
8.29637e-07
8.30552e-07
8.31506e-07
8.32509e-07
8.3357e-07
8.3469e-07
8.35865e-07
8.3709e-07
8.38357e-07
8.39664e-07
8.41012e-07
8.42405e-07
8.43845e-07
8.45333e-07
8.46869e-07
8.48454e-07
8.50086e-07
8.51764e-07
8.53488e-07
8.55257e-07
8.57071e-07
8.58928e-07
8.60826e-07
8.62763e-07
8.64738e-07
8.66747e-07
8.68791e-07
8.70864e-07
8.72966e-07
8.75091e-07
8.77235e-07
8.79395e-07
8.81569e-07
8.83749e-07
8.85932e-07
8.88116e-07
8.90303e-07
8.92489e-07
8.9467e-07
8.96845e-07
8.99021e-07
9.01203e-07
9.03384e-07
9.05513e-07
9.07366e-07
9.08537e-07
9.08545e-07
9.07259e-07
9.0485e-07
9.01499e-07
8.97428e-07
8.92659e-07
8.87504e-07
8.83081e-07
8.80941e-07
8.81856e-07
8.85399e-07
8.90379e-07
8.9614e-07
9.02246e-07
9.09789e-07
9.18752e-07
9.3494e-07
9.61588e-07
1.09025e-06
2.73505e-07
9.09512e-07
1.76268e-06
4.97344e-05
1.78506e-06
9.05946e-07
8.69665e-07
8.41324e-07
8.23146e-07
8.1549e-07
8.15102e-07
8.16797e-07
8.17828e-07
8.18173e-07
8.1839e-07
8.18684e-07
8.19035e-07
8.19409e-07
8.198e-07
8.20211e-07
8.20644e-07
8.211e-07
8.21581e-07
8.22088e-07
8.22621e-07
8.23183e-07
8.23774e-07
8.24396e-07
8.25051e-07
8.25739e-07
8.26462e-07
8.27222e-07
8.28021e-07
8.28856e-07
8.29726e-07
8.30628e-07
8.31563e-07
8.32536e-07
8.33559e-07
8.34642e-07
8.35787e-07
8.3699e-07
8.38243e-07
8.3954e-07
8.40878e-07
8.42259e-07
8.43683e-07
8.45153e-07
8.4667e-07
8.48235e-07
8.49847e-07
8.51506e-07
8.5321e-07
8.5496e-07
8.56754e-07
8.58592e-07
8.60471e-07
8.6239e-07
8.64347e-07
8.6634e-07
8.68367e-07
8.70424e-07
8.72508e-07
8.74616e-07
8.76746e-07
8.78892e-07
8.81053e-07
8.83221e-07
8.85395e-07
8.87572e-07
8.89751e-07
8.9193e-07
8.94106e-07
8.96276e-07
8.98449e-07
9.00631e-07
9.0281e-07
9.04924e-07
9.06738e-07
9.07806e-07
9.07767e-07
9.06512e-07
9.04204e-07
9.01014e-07
8.97117e-07
8.925e-07
8.87443e-07
8.82949e-07
8.80537e-07
8.81119e-07
8.84458e-07
8.89423e-07
8.95328e-07
9.01576e-07
9.09306e-07
9.1824e-07
9.33996e-07
9.59126e-07
1.08154e-06
2.74111e-07
9.09722e-07
1.13573e-07
1.3568e-07
2.15409e-07
9.07338e-07
8.74106e-07
8.45099e-07
8.25699e-07
8.16496e-07
8.15199e-07
8.16835e-07
8.18068e-07
8.185e-07
8.18704e-07
8.18972e-07
8.1931e-07
8.19678e-07
8.20062e-07
8.20464e-07
8.20889e-07
8.21336e-07
8.21807e-07
8.22304e-07
8.22827e-07
8.23377e-07
8.23956e-07
8.24566e-07
8.25208e-07
8.25883e-07
8.26592e-07
8.27337e-07
8.28118e-07
8.28937e-07
8.29795e-07
8.30689e-07
8.31615e-07
8.32573e-07
8.33569e-07
8.34617e-07
8.35723e-07
8.36891e-07
8.38116e-07
8.39394e-07
8.40719e-07
8.42089e-07
8.435e-07
8.44954e-07
8.46453e-07
8.47999e-07
8.49592e-07
8.51232e-07
8.52917e-07
8.54647e-07
8.56421e-07
8.58239e-07
8.60099e-07
8.61999e-07
8.63939e-07
8.65914e-07
8.67924e-07
8.69962e-07
8.72028e-07
8.74118e-07
8.76232e-07
8.78365e-07
8.80513e-07
8.82673e-07
8.8484e-07
8.87011e-07
8.89185e-07
8.91358e-07
8.93525e-07
8.95688e-07
8.97861e-07
9.00045e-07
9.02213e-07
9.04304e-07
9.06073e-07
9.07097e-07
9.07029e-07
9.05802e-07
9.03567e-07
9.00521e-07
8.96759e-07
8.92295e-07
8.87368e-07
8.82849e-07
8.80187e-07
8.80408e-07
8.83499e-07
8.88408e-07
8.94445e-07
9.00862e-07
9.08821e-07
9.17786e-07
9.33295e-07
9.57008e-07
1.07323e-06
2.74029e-07
1.03585e-06
5.6323e-07
1.17793e-06
9.23849e-07
8.78726e-07
8.48957e-07
8.28505e-07
8.17755e-07
8.1537e-07
8.1681e-07
8.18239e-07
8.18793e-07
8.19e-07
8.19241e-07
8.19563e-07
8.19922e-07
8.20299e-07
8.20693e-07
8.21109e-07
8.21546e-07
8.22008e-07
8.22494e-07
8.23006e-07
8.23545e-07
8.24113e-07
8.2471e-07
8.25339e-07
8.26e-07
8.26696e-07
8.27426e-07
8.2819e-07
8.28994e-07
8.29838e-07
8.30723e-07
8.31643e-07
8.32595e-07
8.33581e-07
8.34608e-07
8.35681e-07
8.36808e-07
8.37994e-07
8.3924e-07
8.40543e-07
8.41896e-07
8.43293e-07
8.44733e-07
8.46215e-07
8.47742e-07
8.49317e-07
8.50939e-07
8.52605e-07
8.54317e-07
8.56072e-07
8.5787e-07
8.5971e-07
8.61591e-07
8.63511e-07
8.65468e-07
8.6746e-07
8.6948e-07
8.71526e-07
8.73598e-07
8.75696e-07
8.77815e-07
8.79954e-07
8.82108e-07
8.8427e-07
8.86435e-07
8.88601e-07
8.90764e-07
8.92924e-07
8.95082e-07
8.97255e-07
8.99433e-07
9.01587e-07
9.03654e-07
9.05383e-07
9.06359e-07
9.06268e-07
9.05086e-07
9.02957e-07
9.00018e-07
8.96358e-07
8.92044e-07
8.87286e-07
8.82795e-07
8.79908e-07
8.79747e-07
8.82529e-07
8.87343e-07
8.93493e-07
9.00097e-07
9.08323e-07
9.17396e-07
9.32806e-07
9.55401e-07
1.06598e-06
2.73515e-07
6.63215e-07
3.52588e-07
9.52118e-07
8.84706e-07
8.53378e-07
8.31661e-07
8.19271e-07
8.15642e-07
8.16741e-07
8.18338e-07
8.19044e-07
8.19273e-07
8.19489e-07
8.19793e-07
8.20143e-07
8.20513e-07
8.20899e-07
8.21306e-07
8.21735e-07
8.22187e-07
8.22663e-07
8.23165e-07
8.23693e-07
8.2425e-07
8.24836e-07
8.25452e-07
8.261e-07
8.26781e-07
8.27497e-07
8.28245e-07
8.29034e-07
8.29864e-07
8.30733e-07
8.31643e-07
8.32591e-07
8.33574e-07
8.34593e-07
8.35647e-07
8.36744e-07
8.37892e-07
8.39099e-07
8.40368e-07
8.41692e-07
8.43067e-07
8.44489e-07
8.45954e-07
8.47463e-07
8.49018e-07
8.50622e-07
8.52272e-07
8.53966e-07
8.55703e-07
8.5748e-07
8.593e-07
8.61161e-07
8.63062e-07
8.65e-07
8.66973e-07
8.68976e-07
8.71005e-07
8.7306e-07
8.75143e-07
8.77248e-07
8.79379e-07
8.81529e-07
8.83685e-07
8.8584e-07
8.87993e-07
8.90146e-07
8.92296e-07
8.94449e-07
8.96621e-07
8.9879e-07
9.00927e-07
9.02972e-07
9.04665e-07
9.056e-07
9.05505e-07
9.04379e-07
9.02334e-07
8.99467e-07
8.95903e-07
8.91758e-07
8.872e-07
8.82788e-07
8.79703e-07
8.79138e-07
8.81558e-07
8.86226e-07
8.92463e-07
8.99259e-07
9.07799e-07
9.17053e-07
9.32555e-07
9.54269e-07
1.06089e-06
2.7322e-07
8.92137e-07
8.58759e-07
8.353e-07
8.21088e-07
8.16049e-07
8.16656e-07
8.1838e-07
8.19264e-07
8.19538e-07
8.19733e-07
8.20015e-07
8.20355e-07
8.20719e-07
8.21098e-07
8.21496e-07
8.21917e-07
8.2236e-07
8.22826e-07
8.23318e-07
8.23835e-07
8.24381e-07
8.24955e-07
8.25559e-07
8.26193e-07
8.26861e-07
8.27561e-07
8.28295e-07
8.29072e-07
8.29884e-07
8.30733e-07
8.31627e-07
8.32563e-07
8.33538e-07
8.34551e-07
8.35599e-07
8.36681e-07
8.37804e-07
8.38979e-07
8.40209e-07
8.41497e-07
8.42839e-07
8.44235e-07
8.45679e-07
8.47168e-07
8.48702e-07
8.50284e-07
8.51915e-07
8.53591e-07
8.5531e-07
8.57069e-07
8.58868e-07
8.60709e-07
8.62589e-07
8.64508e-07
8.66463e-07
8.68451e-07
8.70465e-07
8.72507e-07
8.74575e-07
8.76669e-07
8.78793e-07
8.80936e-07
8.8308e-07
8.85219e-07
8.87357e-07
8.89496e-07
8.91636e-07
8.93787e-07
8.95957e-07
8.98113e-07
9.00234e-07
9.02259e-07
9.03922e-07
9.04824e-07
9.04736e-07
9.03659e-07
9.01668e-07
8.98856e-07
8.95398e-07
8.91445e-07
8.87115e-07
8.82801e-07
8.79544e-07
8.78576e-07
8.80589e-07
8.85062e-07
8.91363e-07
8.98345e-07
9.07232e-07
9.16731e-07
9.32546e-07
9.53624e-07
1.05786e-06
2.72325e-07
8.65224e-07
8.39501e-07
8.23266e-07
8.16633e-07
8.16577e-07
8.18373e-07
8.19461e-07
8.19805e-07
8.19983e-07
8.20241e-07
8.20569e-07
8.20926e-07
8.21298e-07
8.21688e-07
8.22099e-07
8.22533e-07
8.2299e-07
8.23471e-07
8.23978e-07
8.24511e-07
8.25073e-07
8.25664e-07
8.26286e-07
8.2694e-07
8.27623e-07
8.28344e-07
8.29108e-07
8.29901e-07
8.30731e-07
8.31607e-07
8.32524e-07
8.33481e-07
8.3448e-07
8.35521e-07
8.36598e-07
8.37711e-07
8.38865e-07
8.40066e-07
8.41318e-07
8.42624e-07
8.43987e-07
8.45404e-07
8.4687e-07
8.48379e-07
8.49934e-07
8.51539e-07
8.53193e-07
8.54893e-07
8.56633e-07
8.58414e-07
8.60235e-07
8.62093e-07
8.63991e-07
8.6593e-07
8.67906e-07
8.69909e-07
8.71937e-07
8.7399e-07
8.76074e-07
8.7819e-07
8.80322e-07
8.82449e-07
8.84568e-07
8.86689e-07
8.88814e-07
8.90946e-07
8.93097e-07
8.95261e-07
8.97398e-07
8.99506e-07
9.01516e-07
9.03148e-07
9.04026e-07
9.03955e-07
9.02907e-07
9.00936e-07
8.98172e-07
8.94844e-07
8.91107e-07
8.87016e-07
8.82831e-07
8.79439e-07
8.78078e-07
8.79651e-07
8.83859e-07
8.90175e-07
8.97353e-07
9.06614e-07
9.16412e-07
9.3278e-07
9.53398e-07
1.05764e-06
2.72424e-07
8.44262e-07
8.25865e-07
8.17449e-07
8.16527e-07
8.18309e-07
8.19622e-07
8.20067e-07