/*--------------------------------*- C++ -*----------------------------------*\
  =========                 |
  \\      /  F ield         | OpenFOAM: The Open Source CFD Toolbox
   \\    /   O peration     | Website:  https://openfoam.org
    \\  /    A nd           | Version:  9
     \\/     M anipulation  |
\*---------------------------------------------------------------------------*/
FoamFile
{
    format      ascii;
    class       volScalarField;
    location    "1500";
    object      omega;
}
// * * * * * * * * * * * * * * * * * * * * * * * * * * * * * * * * * * * * * //

dimensions      [0 0 -1 0 0 0 0];

internalField   nonuniform List<scalar> 
13538
(
10.1656
0.974538
0.276473
1.56685
2.1356
2.26136
2.3608
2.48701
2.62474
2.76896
2.92031
3.07949
3.247
3.42343
3.60914
3.80474
4.01078
4.22773
4.45627
4.69694
4.95037
5.21724
5.49822
5.79408
6.10553
6.43335
6.77833
7.14123
7.523
7.9247
8.34719
8.79136
9.25839
9.7492
10.265
10.8071
11.3763
11.9739
12.6012
13.2594
13.9501
14.6744
15.4337
16.2295
17.063
17.9354
18.8484
19.8039
20.803
21.8466
22.9367
24.0741
25.2609
26.4977
27.786
29.1274
30.5226
31.9741
33.4824
35.0469
36.6685
38.3485
40.0864
41.883
43.7393
45.658
47.6403
49.683
51.7845
53.9435
56.1607
58.4393
60.7811
63.1801
65.6356
68.1478
70.7159
73.3486
76.078
78.9606
82.0543
85.3842
88.9267
92.6254
96.3587
99.9606
103.369
106.622
109.785
112.887
115.925
118.869
121.696
124.34
126.84
129.616
133.778
142.894
156.739
13.0375
0.0694787
0.0595488
1.52129
2.20636
2.37169
2.47078
2.59799
2.74048
2.89014
3.04691
3.21168
3.385
3.56735
3.75925
3.96124
4.17382
4.3976
4.63312
4.881
5.14187
5.41638
5.70521
6.00905
6.32865
6.66479
7.01825
7.38987
7.78057
8.19116
8.62254
9.07574
9.55179
10.0517
10.5764
11.1271
11.705
12.3111
12.9468
13.6132
14.3115
15.043
15.8091
16.6109
17.45
18.3275
19.2449
20.2035
21.2044
22.2493
23.3395
24.4759
25.66
26.8929
28.1758
29.5098
30.8953
32.3338
33.8256
35.3718
36.973
38.6299
40.3429
42.1111
43.9363
45.8196
47.7628
49.7637
51.8214
53.9343
56.1041
58.3329
60.6232
62.9695
65.3679
67.8229
70.3366
72.9145
75.5783
78.3904
81.4131
84.6621
88.1197
91.7441
95.4249
99.0008
102.391
105.627
108.781
111.878
114.933
117.908
120.786
123.497
126.049
128.796
132.824
140.411
147.596
15.4448
0.195044
0.0516505
1.31205
2.13005
2.35361
2.44829
2.56793
2.70816
2.85668
3.01203
3.17518
3.3468
3.52738
3.71743
3.91746
4.12802
4.34967
4.58298
4.82855
5.08702
5.35903
5.64525
5.94642
6.26325
6.59652
6.94701
7.31554
7.703
8.11029
8.53833
8.98808
9.46055
9.95678
10.4778
11.0247
11.5988
12.2009
12.8325
13.4948
14.1889
14.9162
15.678
16.4756
17.3104
18.1836
19.0967
20.051
21.0477
22.0884
23.1744
24.3069
25.4872
26.7164
27.9954
29.3259
30.7085
32.1448
33.6347
35.1793
36.7794
38.4353
40.148
41.9167
43.742
45.6233
47.5607
49.5536
51.6032
53.7061
55.8644
58.0795
60.3534
62.6836
65.0651
67.5013
69.9997
72.56
75.2041
77.9965
80.9978
84.2226
87.6514
91.2499
94.9138
98.4897
101.885
105.119
108.273
111.38
114.457
117.467
120.395
123.165
125.774
128.511
132.453
139.123
140.798
17.512
1.27969
0.0728288
1.15248
2.06424
2.35921
2.45864
2.5713
2.70972
2.85851
3.01404
3.17718
3.34876
3.52927
3.71923
3.91915
4.12957
4.35105
4.58417
4.82952
5.08774
5.35947
5.64538
5.94618
6.26261
6.59542
6.94542
7.31341
7.70028
8.1069
8.53419
8.98314
9.45472
9.94997
10.47
11.0157
11.5884
12.1892
12.8194
13.48
14.1723
14.8977
15.6576
16.4528
17.2852
18.1557
19.0661
20.0174
21.011
22.0482
23.1305
24.259
25.435
26.6599
27.9345
29.2599
30.6372
32.0679
33.5521
35.0906
36.684
38.3331
40.0389
41.8006
43.6186
45.4931
47.425
49.4125
51.4561
53.5549
55.7075
57.9129
60.1718
62.4806
64.8395
67.2513
69.7189
72.248
74.8618
77.6224
80.5896
83.7747
87.1647
90.7286
94.37
97.939
101.334
104.568
107.718
110.826
113.91
116.942
119.914
122.747
125.425
128.159
131.997
137.99
135.344
19.3431
0.741033
0.0808045
0.989467
1.97504
2.34895
2.46084
2.56617
2.70121
2.84961
3.00493
3.1676
3.33861
3.51852
3.70784
3.90707
4.11676
4.33745
4.56974
4.8142
5.07149
5.34222
5.62707
5.92677
6.24201
6.57357
6.92227
7.28887
7.67427
8.07935
8.50502
8.95224
9.42202
9.91532
10.4333
10.9769
11.5474
12.1458
12.7735
13.4315
14.1212
14.8437
15.6005
16.3926
17.2216
18.0887
18.9955
19.943
20.9326
21.9657
23.0438
24.1679
25.3391
26.5592
27.8288
29.1493
30.5214
31.9463
33.4248
34.9577
36.5459
38.1891
39.8884
41.6438
43.4558
45.3247
47.2501
49.2301
51.2665
53.3582
55.5048
57.7056
59.9597
62.265
64.6216
67.0295
69.4849
71.9933
74.5832
77.3128
80.2414
83.3864
86.7362
90.2633
93.8803
97.4426
100.843
104.085
107.236
110.342
113.435
116.484
119.493
122.377
125.121
127.858
131.596
137.16
131.378
20.9868
1.75701
0.0827322
0.83428
1.87458
2.33056
2.46357
2.56288
2.69344
2.84109
2.99625
3.1585
3.32895
3.50826
3.69694
3.89549
4.10444
4.32435
4.5558
4.79938
5.05571
5.32544
5.60922
5.90778
6.22183
6.55212
6.89945
7.26463
7.64851
8.05199
8.47596
8.92139
9.38928
9.88061
10.3965
10.9378
11.506
12.102
12.727
13.3822
14.069
14.7885
15.542
16.3308
17.1562
18.0196
18.9224
19.8659
20.8511
21.8797
22.9531
24.0724
25.2386
26.4533
27.7174
29.0322
30.3983
31.8174
33.2898
34.8162
36.3976
38.0342
39.7269
41.4753
43.2804
45.1413
47.0595
49.0333
51.0622
53.1468
55.2858
57.4789
59.7264
62.025
64.3735
66.7743
69.2243
71.7311
74.3163
77.0343
79.9401
83.0521
86.3628
89.8427
93.4249
96.974
100.376
103.619
106.775
109.887
112.992
116.061
119.096
122.024
124.835
127.593
131.234
136.499
127.876
22.4802
1.2336
0.0329172
0.696262
1.76325
2.3008
2.46338
2.55904
2.68409
2.83033
2.98523
3.147
3.31678
3.49537
3.68327
3.881
4.08907
4.30805
4.5385
4.78102
5.03623
5.30477
5.5873
5.88453
6.19717
6.52598
6.87174
7.23525
7.61738
8.019
8.44103
8.8844
9.35013
9.83914
10.3525
10.8914
11.4569
12.0501
12.6721
13.3242
14.0078
14.7238
15.4736
16.2586
17.0801
17.9395
18.8379
19.7768
20.7573
21.781
22.8492
23.963
25.1236
26.3324
27.5906
28.8994
30.2593
31.672
33.1376
34.6569
36.2311
37.8608
39.5466
41.288
43.0854
44.9389
46.8492
48.8148
50.8371
52.9142
55.0465
57.2314
59.4709
61.7619
64.1038
66.4974
68.9412
71.4396
74.0175
76.7308
79.6322
82.735
86.0238
89.4716
93.0168
96.5422
99.9363
103.181
106.34
109.46
112.58
115.666
118.733
121.705
124.574
127.347
130.9
136.005
125.404
23.8488
2.21846
0.0362958
0.575592
1.64406
2.2597
2.45966
2.55504
2.67393
2.818
2.97248
3.13376
3.3028
3.48057
3.6676
3.86439
4.07147
4.2894
4.51873
4.76007
5.01402
5.28123
5.56236
5.8581
6.16917
6.49632
6.84033
7.202
7.58218
7.98175
8.4016
8.84268
9.30598
9.79247
10.3032
10.8393
11.4018
11.9918
12.6107
13.2594
13.9392
14.6515
15.3973
16.1782
16.9954
17.8501
18.7438
19.6777
20.6532
21.6715
22.734
23.8419
24.9966
26.1994
27.4511
28.7531
30.106
31.5114
32.9699
34.4824
36.0491
37.671
39.349
41.0821
42.8718
44.7172
46.6192
48.5773
50.5906
52.6593
54.7837
56.961
59.1913
61.4749
63.8105
66.1979
68.6332
71.1249
73.6986
76.405
79.2981
82.3881
85.6631
89.1007
92.6358
96.1494
99.5327
102.766
105.922
109.048
112.18
115.296
118.399
121.409
124.34
127.137
130.607
135.605
122.893
25.1149
0.372655
0.104331
0.466181
1.51875
2.20733
2.45127
2.55044
2.66297
2.80404
2.95786
3.1186
3.28684
3.46367
3.64972
3.84547
4.05145
4.26819
4.49628
4.73629
4.98885
5.25458
5.53415
5.82824
6.13757
6.46287
6.80493
7.16455
7.54259
7.93989
8.35735
8.79591
9.25654
9.74023
10.248
10.781
11.3402
11.9269
12.5421
13.1871
13.863
14.5712
15.3127
16.0891
16.9016
17.7514
18.6399
19.5683
20.5382
21.5506
22.6072
23.7089
24.857
26.053
27.298
28.5929
29.9384
31.3362
32.7867
34.2912
35.8503
37.4638
39.1328
40.8575
42.6388
44.4758
46.3692
48.3184
50.3231
52.3839
54.4996
56.6685
58.8911
61.1659
63.4929
65.8718
68.3006
70.7852
73.3534
76.0546
78.9393
82.0198
85.2801
88.7008
92.2265
95.7484
99.1486
102.387
105.531
108.649
111.792
114.935
118.08
121.138
124.127
126.953
130.35
135.298
121.59
26.289
0.792594
0.0861153
0.360169
1.38713
2.14422
2.43746
2.54486
2.65136
2.78858
2.9414
3.10156
3.26892
3.44473
3.62969
3.82429
4.02904
4.24448
4.47119
4.70974
4.96075
5.22486
5.5027
5.79498
6.10239
6.42567
6.76561
7.12298
7.49863
7.89344
8.30827
8.74407
9.2018
9.68247
10.1871
10.7167
11.2724
11.8553
12.4666
13.1075
13.7792
14.4828
15.2197
15.9911
16.7985
17.6429
18.5259
19.4487
20.4124
21.4186
22.4687
23.5637
24.7048
25.8935
27.131
28.4182
29.7556
31.1454
32.5877
34.0837
35.6338
37.2388
38.899
40.6149
42.3872
44.2146
46.0983
48.0393
50.0352
52.0856
54.1918
56.3518
58.5656
60.832
63.1501
65.5207
67.9408
70.4183
72.9814
75.6776
78.5552
81.6254
84.8707
88.2765
91.7893
95.3128
98.7277
101.995
105.161
108.281
111.422
114.581
117.764
120.873
123.928
126.789
130.145
135.04
120.37
27.3896
1.13955
0.165467
0.250024
1.25057
2.07073
2.41753
2.53786
2.63913
2.77171
2.92307
3.08258
3.24904
3.42373
3.60748
3.80081
4.00421
4.21823
4.44343
4.68039
4.92971
5.19203
5.468
5.75829
6.06361
6.38468
6.72229
7.07722
7.45029
7.84239
8.25438
8.68718
9.14175
9.61911
10.1202
10.6462
11.1981
11.7771
12.3841
13.0206
13.6877
14.3865
15.1183
15.8845
16.6863
17.525
18.402
19.3184
20.2758
21.2753
22.3184
23.4061
24.5397
25.7206
26.95
28.2292
29.5585
30.9398
32.3729
33.8597
35.4005
36.9965
38.6472
40.3531
42.1151
43.9336
45.8071
47.7378
49.7243
51.7657
53.8621
56.0118
58.2155
60.4728
62.783
65.1436
67.5545
70.0257
72.5825
75.2739
78.1452
81.2057
84.435
87.8244
91.3263
94.846
98.279
101.568
104.756
107.904
111.066
114.244
117.454
120.613
123.747
126.651
129.986
134.833
119.267
28.4167
1.66133
0.134687
0.148388
1.11041
1.98655
2.39074
2.52898
2.62632
2.75356
2.90292
3.06165
3.22716
3.40065
3.58309
3.77502
3.97696
4.18943
4.41299
4.64821
4.8957
5.15609
5.43001
5.71815
6.0212
6.33989
6.67498
7.02726
7.39756
7.78671
8.19562
8.62518
9.07633
9.55013
10.0476
10.5697
11.1175
11.6921
12.2947
12.9264
13.5885
14.2821
15.0085
15.769
16.565
17.3976
18.2682
19.1779
20.1284
21.1206
22.1563
23.2363
24.362
25.5348
26.7555
28.0257
29.3459
30.7179
32.1418
33.6193
35.1502
36.736
38.3763
40.0719
41.8239
43.6323
45.4961
47.4161
49.3916
51.4223
53.5087
55.6486
57.843
60.0897
62.3885
64.7389
67.142
69.6058
72.1595
74.846
77.7096
80.7601
83.9756
87.3462
90.8314
94.3517
97.7963
101.11
104.324
107.499
110.697
113.913
117.156
120.359
123.562
126.521
129.876
134.652
118.895
29.3841
2.08635
0.202683
0.0624485
0.969608
1.89174
2.35628
2.51773
2.61296
2.7343
2.88099
3.03875
3.20328
3.37548
3.55649
3.74693
3.94729
4.15808
4.37987
4.61322
4.85873
5.11704
5.38876
5.67458
5.97519
6.29131
6.6237
6.97314
7.34043
7.72645
8.13203
8.5581
9.00563
9.47562
9.96903
10.487
11.0304
11.6004
12.1982
12.8248
13.4816
14.1697
14.8904
15.6449
16.4345
17.2604
18.1243
19.0269
19.97
20.9546
21.9822
23.0541
24.1712
25.3352
26.5471
27.8081
29.1187
30.4809
31.8947
33.3617
34.882
36.4569
38.0874
39.7727
41.5132
43.3095
45.1623
47.0719
49.0361
51.0554
53.1304
55.26
57.4444
59.6803
61.9684
64.309
66.7033
69.1601
71.7074
74.3929
77.2511
80.2898
83.4903
86.8421
90.3082
93.819
97.2781
100.617
103.86
107.064
110.294
113.559
116.859
120.113
123.38
126.397
129.808
134.488
118.426
30.2942
3.01109
0.031181
0.0180957
0.832202
1.78706
2.31357
2.50354
2.59903
2.7141
2.85739
3.0139
3.1774
3.34826
3.52774
3.71657
3.91523
4.12423
4.34412
4.57547
4.81887
5.07495
5.34432
5.62767
5.92568
6.23906
6.56857
6.91497
7.27909
7.66174
8.06381
8.48622
8.92984
9.3957
9.88474
10.3981
10.9368
11.502
12.0947
12.716
13.3672
14.0494
14.7639
15.5119
16.2949
17.1138
17.9703
18.8655
19.8007
20.7772
21.7963
22.8595
23.9676
25.1225
26.3247
27.5757
28.8761
30.2279
31.6315
33.0878
34.5969
36.1607
37.7792
39.4527
41.1824
42.9676
44.8081
46.705
48.658
50.6659
52.729
54.8478
57.0196
59.2442
61.522
63.8526
66.2394
68.6904
71.2299
73.91
76.7619
79.7892
82.9757
86.3083
89.7556
93.257
96.7264
100.091
103.359
106.592
109.856
113.168
116.53
119.858
123.205
126.283
129.769
134.343
118.628
31.1528
0.895695
0.0298685
0.0375714
0.708155
1.67237
2.26174
2.48574
2.58441
2.69321
2.83232
2.9872
3.14959
3.31907
3.49695
3.68406
3.88091
4.088
4.30588
4.53511
4.77628
5.02999
5.29687
5.5776
5.87285
6.18333
6.50979
6.85299
7.21374
7.59285
7.99121
8.40972
8.84926
9.3107
9.79505
10.3034
10.837
11.3969
11.9842
12.5998
13.245
13.921
14.629
15.3703
16.1461
16.9577
17.8065
18.6936
19.6205
20.5883
21.5986
22.6526
23.7512
24.8961
26.0882
27.3288
28.6187
29.9594
31.3515
32.7964
34.294
35.8461
37.453
39.1138
40.8307
42.6032
44.4315
46.3159
48.2561
50.2521
52.3031
54.4101
56.5703
58.7819
61.0501
63.3722
65.7489
68.193
70.7265
73.3982
76.2431
79.2622
82.4331
85.7423
89.1649
92.6586
96.1345
99.5232
102.822
106.083
109.382
112.74
116.159
119.57
123.013
126.163
129.749
134.194
119.192
31.9657
1.88538
0.147589
0.0734937
0.595331
1.55133
2.19985
2.46336
2.56882
2.67178
2.80602
2.95883
3.11997
3.28803
3.46423
3.64953
3.84448
4.04956
4.26532
4.4923
4.73111
4.98234
5.2466
5.52458
5.81693
6.12436
6.44761
6.78744
7.14463
7.52002
7.91447
8.3289
8.7641
9.22086
9.70021
10.2033
10.7313
11.2853
11.8666
12.4763
13.1152
13.7847
14.4858
15.2199
15.9883
16.7921
17.6328
18.5114
19.4297
20.3883
21.3892
22.4334
23.5219
24.6564
25.8378
27.0676
28.3463
29.6754
31.0559
32.4884
33.974
35.5132
37.1072
38.7557
40.4596
42.2192
44.0344
45.9045
47.831
49.8141
51.8525
53.9462
56.0939
58.2941
60.5507
62.8664
65.2363
67.6714
70.1957
72.8624
75.6979
78.7028
81.8559
85.1396
88.5397
92.0176
95.5029
98.9132
102.24
105.531
108.858
112.266
115.752
119.253
122.803
126.044
129.754
134.044
119.315
32.7323
0.113485
0.0399942
0.0271013
0.497874
1.42542
2.12741
2.4352
2.55176
2.64985
2.77867
2.92893
3.08868
3.25525
3.42971
3.6131
3.80604
4.00901
4.22253
4.44717
4.68349
4.9321
5.19361
5.46869
5.75799
6.06221
6.38208
6.71836
7.07183
7.44329
7.83363
8.24375
8.67439
9.1263
9.60046
10.0979
10.6199
11.1677
11.7425
12.3456
12.9778
13.6404
14.3343
15.0609
15.8213
16.6169
17.449
18.3188
19.2278
20.177
21.168
22.2019
23.28
24.4035
25.5737
26.7917
28.0585
29.3755
30.7434
32.1634
33.6359
35.1619
36.7421
38.3772
40.0675
41.8132
43.6141
45.4712
47.3846
49.3538
51.3782
53.4581
55.5915
57.7805
60.0288
62.3363
64.6958
67.1192
69.6354
72.2944
75.1193
78.1063
81.2376
84.4972
87.8714
91.339
94.828
98.2603
101.615
104.934
108.297
111.75
115.303
118.895
122.556
125.916
129.78
133.897
120.261
33.4597
1.47061
0.0572829
0.0210188
0.407857
1.29699
2.04439
2.40025
2.53262
2.62728
2.75027
2.8975
3.05571
3.22073
3.39334
3.57474
3.76557
3.96631
4.17748
4.39963
4.63334
4.87919
5.1378
5.40982
5.69589
5.99673
6.31304
6.64557
6.9951
7.36243
7.74845
8.15399
8.57976
9.02663
9.49557
9.9874
10.5032
11.0443
11.6121
12.208
12.833
13.4881
14.1744
14.8931
15.6454
16.4324
17.2555
18.116
19.0153
19.9545
20.9351
21.9583
23.0252
24.1371
25.2954
26.5013
27.7556
29.0602
30.4151
31.8215
33.2799
34.7923
36.3583
37.9791
39.6549
41.3861
43.1719
45.0144
46.914
48.87
50.8802
52.9467
55.0659
57.2418
59.4804
61.7793
64.128
66.5369
69.0436
71.6941
74.5081
77.4757
80.5831
83.8156
87.1653
90.617
94.11
97.5608
100.941
104.288
107.685
111.185
114.804
118.496
122.281
125.769
129.832
133.732
120.618
34.1498
3.19109
0.0054964
0.0278287
0.329357
1.16718
1.95126
2.35777
2.51078
2.60386
2.72077
2.86442
3.02086
3.18428
3.35499
3.53426
3.72285
3.92123
4.12992
4.34944
4.58039
4.82333
5.07886
5.34765
5.63032
5.92758
6.24013
6.5687
6.91407
7.27703
7.65847
8.05913
8.47975
8.92142
9.38506
9.87126
10.3809
10.9153
11.476
12.0643
12.6813
13.3284
14.0064
14.7167
15.4602
16.2383
17.0522
17.903
18.792
19.7209
20.6905
21.7023
22.7575
23.8576
25.0037
26.197
27.4381
28.7291
30.0701
31.4626
32.9067
34.4039
35.9552
37.5608
39.2216
40.9375
42.7092
44.5382
46.4237
48.3653
50.3615
52.4113
54.5149
56.6796
58.9102
61.196
63.5265
65.9196
68.4146
71.0559
73.8549
76.8035
79.8866
83.0926
86.417
89.8534
93.3436
96.8104
100.218
103.599
107.028
110.572
114.257
118.052
121.966
125.61
129.892
133.59
121.901
34.8
1.40371
0.00442977
0.0106123
0.257768
1.03861
1.84909
2.30727
2.48564
2.57941
2.69008
2.82953
2.98393
3.14568
3.31441
3.49145
3.67765
3.87355
4.07961
4.29636
4.52438
4.76423
5.01654
5.28191
5.56099
5.85446
6.16302
6.48742
6.8284
7.18676
7.56338
7.95884
8.37405
8.81032
9.26845
9.74888
10.2525
10.7805
11.3341
11.9146
12.5232
13.1616
13.8308
14.532
15.2664
16.035
16.839
17.6795
18.5581
19.4759
20.4343
21.4343
22.4775
23.5651
24.698
25.878
27.1054
28.3822
29.7087
31.0866
32.5156
33.9975
35.5329
37.1236
38.7679
40.4681
42.225
44.0403
45.9125
47.8392
49.8184
51.8525
53.9413
56.093
58.3104
60.5805
62.8928
65.2692
67.7531
70.3828
73.1658
76.0929
79.1496
82.3288
85.6328
89.0475
92.5332
96.0153
99.4471
102.854
106.315
109.91
113.656
117.558
121.611
125.43
129.964
133.456
122.767
35.4247
3.16853
0.275508
0.00972529
0.197274
0.913074
1.73915
2.24835
2.45658
2.55378
2.6583
2.79283
2.9448
3.1048
3.2715
3.44619
3.62989
3.82315
4.02644
4.24028
4.46522
4.70183
4.95073
5.21252
5.48782
5.77733
6.08173
6.40174
6.7381
7.09164
7.46318
7.85317
8.26281
8.69344
9.14566
9.61998
10.1175
10.6392
11.1859
11.7587
12.3589
12.9883
13.6481
14.3397
15.0642
15.8226
16.6162
17.4461
18.3136
19.22
20.1665
21.1543
22.1848
23.2592
24.3786
25.5446
26.7577
28.0201
29.3315
30.6937
32.1067
33.5733
35.0934
36.6686
38.2964
39.9798
41.722
43.5237
45.3808
47.2904
49.2524
51.2676
53.3388
55.4786
57.6837
59.9321
62.2214
64.5799
67.0532
69.6703
72.4368
75.3414
78.3748
81.5285
84.8068
88.2042
91.6766
95.1675
98.6205
102.059
105.549
109.189
112.999
117.008
121.203
125.226
130.037
133.343
124.042
1.31731
0.0820372
0.0168287
0.143998
0.791791
1.62252
2.18059
2.42293
2.52683
2.62561
2.75451
2.90356
3.06168
3.22631
3.39859
3.57966
3.77017
3.97056
4.18136
4.4031
4.63633
4.88167
5.13971
5.41108
5.69645
5.99649
6.31194
6.6435
6.99202
7.35823
7.74252
8.14648
8.57121
9.01698
9.48472
9.97578
10.4909
11.0306
11.5958
12.188
12.8086
13.4589
14.1404
14.8544
15.602
16.3845
17.2031
18.059
18.9534
19.8873
20.8621
21.8794
22.9403
24.0457
25.1971
26.3954
27.6421
28.9375
30.2837
31.6812
33.1322
34.6368
36.1952
37.8059
39.4731
41.2007
42.9872
44.827
46.7168
48.6574
50.6543
52.7105
54.8367
57.0242
59.2482
61.5145
63.8577
66.3204
68.9221
71.6696
74.5498
77.5581
80.6913
83.9442
87.3167
90.7741
94.2664
97.7432
101.21
104.731
108.41
112.285
116.4
120.742
124.989
130.122
133.234
125.787
0.298438
0.00700414
0.0989657
0.676002
1.49996
2.10346
2.38387
2.49825
2.59223
2.71492
2.86049
3.01654
3.17906
3.34885
3.52721
3.71484
3.91224
4.11986
4.33826
4.56799
4.80962
5.06378
5.33106
5.61214
5.90766
6.21835
6.54493
6.88827
7.24888
7.62728
8.02551
8.44399
8.88287
9.34368
9.82784
10.3357
10.8678
11.4253
12.0097
12.6219
13.2628
13.9341
14.6372
15.3735
16.1446
16.9513
17.7951
18.6765
19.5974
20.5587
21.562
22.6085
23.6991
24.8353
26.0185
27.249
28.5281
29.8571
31.2389
32.675
34.1642
35.7054
37.2971
38.9471
40.6598
42.4289
44.2473
46.1143
48.0346
50.0114
52.0514
54.1645
56.3309
58.5277
60.7731
63.1033
65.5537
68.1405
70.8664
73.7236
76.7068
79.8132
83.0401
86.3833
89.8228
93.3172
96.8097
100.305
103.855
107.569
111.499
115.725
120.222
124.715
130.214
133.114
127.752
0.566753
1.37227
2.01666
2.33856
2.46759
2.55822
2.67432
2.81581
2.96953
3.12987
3.29712
3.47267
3.65733
3.85161
4.05595
4.27089
4.49699
4.73479
4.98491
5.24795
5.52458
5.81542
6.1212
6.44261
6.78053
7.13528
7.50778
7.90017
8.31193
8.74366
9.19742
9.6742
10.174
10.6979
11.2475
11.8237
12.4273
13.059
13.7204
14.4128
15.1377
15.897
16.6914
17.5223
18.3906
19.2975
20.2445
21.233
22.2644
23.3397
24.46
25.6272
26.8412
28.1029
29.415
30.7815
32.2027
33.6759
35.1976
36.7699
38.4026
40.0981
41.846
43.6401
45.4828
47.3814
49.3393
51.3643
53.4618
55.6025
57.7724
59.9988
62.3187
64.7553
67.3232
70.0243
72.8575
75.8176
78.8987
82.0955
85.4056
88.8188
92.3056
95.8147
99.3353
102.915
106.668
110.645
114.974
119.626
124.394
130.32
132.986
130.25
1.24053
1.92021
2.28608
2.43416
2.52351
2.63286
2.76958
2.92063
3.07871
3.24338
3.41603
3.5976
3.78864
3.98958
4.20094
4.42325
4.65709
4.90304
5.16168
5.43368
5.71967
6.02036
6.33641
6.66873
7.01736
7.38414
7.77042
8.17491
8.5995
9.04619
9.51506
10.0062
10.5215
11.0625
11.6301
12.2245
12.8468
13.4982
14.1802
14.894
15.6414
16.4232
17.2409
18.0956
18.9883
19.9204
20.8933
21.9089
22.9681
24.0724
25.2227
26.4192
27.6631
28.9584
30.3099
31.7156
33.17
34.6703
36.2219
37.8368
39.5121
41.2359
43.0042
44.8238
46.7009
48.6399
50.6509
52.7285
54.8377
56.9818
59.1926
61.4997
63.9209
66.4677
69.1442
71.9552
74.891
77.9415
81.1051
84.3813
87.7694
91.247
94.7629
98.3059
101.909
105.692
109.721
114.145
118.947
124.009
130.437
132.856
132.588
1.81405
2.22508
2.39694
2.48771
2.59037
2.72159
2.86952
3.02523
3.18725
3.3569
3.53526
3.72292
3.92031
4.12794
4.34633
4.57603
4.81761
5.0717
5.33889
5.61983
5.9152
6.2257
6.55214
6.89445
7.25644
7.63591
8.03295
8.45062
8.89003
9.35042
9.83269
10.3393
10.8714
11.4293
12.0138
12.626
13.2673
13.9387
14.6416
15.377
16.1461
16.9504
17.7911
18.6696
19.5866
20.5438
21.5431
22.5854
23.6727
24.8057
25.984
27.2099
28.4894
29.8251
31.2129
32.6455
34.1212
35.6524
37.2489
38.9004
40.5963
42.3384
44.1364
45.994
47.9164
49.9112
51.9648
54.0376
56.1588
58.3566
60.6485
63.0495
65.5735
68.2283
71.0148
73.9219
76.9419
80.0699
83.308
86.6631
90.1252
93.6471
97.2114
100.84
104.654
108.718
113.237
118.181
123.549
130.556
132.761
135.363
7.12416
7.49549
7.88628
8.29728
8.72875
9.18014
9.65371
10.1517
10.6744
11.222
11.7959
12.3975
13.0278
13.6883
14.3799
15.1029
15.8587
16.6495
17.4765
18.3406
19.2427
20.184
21.1667
22.1919
23.2617
24.3764
25.5361
26.7441
28.0077
29.3262
30.6925
32.1001
33.5508
35.0632
36.6392
38.2633
39.9304
41.6478
43.4258
45.2632
47.1684
49.1432
51.1606
53.198
55.3017
57.4857
59.7574
62.1355
64.6352
67.2693
70.0328
72.9085
75.892
78.9805
82.1819
85.5064
88.9476
92.4649
96.0431
99.6925
103.531
107.634
112.236
117.314
122.995
130.659
132.758
137.151
7.73494
8.13925
8.562
9.00438
9.46963
9.95894
10.4714
11.0084
11.5715
12.1618
12.7807
13.4295
14.1087
14.8187
15.5611
16.3382
17.151
18.0005
18.8877
19.8134
20.7792
21.7868
22.8386
23.9339
25.0745
26.266
27.5138
28.8117
30.1522
31.5318
32.9589
34.4538
36.0058
37.5982
39.238
40.9346
42.6926
44.5087
46.3951
48.3406
7.97521
8.38873
8.82363
9.28081
9.76059
10.2623
10.7887
11.3409
11.9196
12.5267
13.1632
13.8291
14.525
15.2536
16.0165
16.8147
17.649
18.5208
19.4305
20.3794
21.369
22.4024
23.4776
24.5993
25.7752
27.0049
28.2777
29.5896
30.9407
32.3482
33.8267
35.3475
36.9075
38.5225
40.1992
41.9348
43.728
45.5896
8.63797
9.08699
9.55619
10.0471
10.5634
11.1042
11.6713
12.2664
12.8898
13.5412
14.223
14.9377
15.6858
16.4686
17.2869
18.1423
19.035
19.9662
20.9375
21.9519
23.006
24.1107
25.2712
26.478
27.7214
29.0033
30.3294
31.72
33.1747
34.6576
36.1896
37.7839
39.4394
41.1506
42.9177
8.88658
9.34458
9.82671
10.3325
10.8613
11.4169
11.9996
12.6091
13.2458
13.9138
14.6142
15.3469
16.1135
16.9153
17.7532
18.6278
19.5404
20.4926
21.4874
22.52
23.6113
24.7525
25.9297
27.1414
28.3954
29.7001
31.0728
9.60119
10.0943
10.6125
11.1566
11.7259
12.3206
12.9434
13.5984
14.2835
15.0001
15.7503
16.5348
17.3541
18.2096
19.1029
20.0357
21.01
22.0214
23.0998
24.2127
25.3554
26.5374
27.768
29.0531
10.3581
10.8889
11.4436
12.0236
12.6352
13.2763
13.9448
14.6454
15.379
16.1454
16.9457
17.7818
18.6556
19.5683
20.5212
21.5124
12.3214
12.9448
13.598
14.2833
14.9991
15.7464
16.5277
17.3446
18.1984
19.0902
20.0213
20.9914
13.2446
13.9124
14.6086
15.337
16.0994
16.8967
17.73
18.6004
19.509
20.457
80.1263
81.0141
82.0539
78.794
79.4344
80.2101
81.1197
82.1868
83.3836
84.6571
85.8482
86.8352
87.5597
88.0464
88.4566
88.7277
88.3078
87.0165
87.8194
90.2505
92.5419
63.5361
76.3309
76.7091
77.0944
77.4874
77.8919
78.3293
78.8548
79.4976
80.2758
81.2032
82.3011
83.552
84.8896
86.1405
87.1709
87.941
88.4935
88.965
89.1415
88.3984
86.8474
87.7389
90.4688
91.6091
62.1979
74.833
75.2088
75.5849
75.9624
76.3483
76.7353
77.1274
77.5273
77.9399
78.3836
78.8995
79.5389
80.325
81.2766
82.4087
83.7092
85.1103
86.4235
87.5049
88.332
88.9669
89.5032
89.5523
88.4235
86.5523
87.6411
90.7479
90.6916
61.1619
73.2652
73.6614
74.0512
74.4378
74.8256
75.205
75.5845
75.9691
76.3549
76.7444
77.1407
77.5483
77.968
78.4159
78.9316
79.5702
80.3662
81.3413
82.5082
83.8672
85.3371
86.7175
87.8552
88.7515
89.4895
90.1017
89.9824
88.3517
86.1911
87.6019
91.0393
89.8042
60.3189
71.9947
72.4184
72.8336
73.2453
73.6432
74.0364
74.4257
74.8084
75.191
75.5739
75.9603
76.3512
76.7471
77.1492
77.561
77.9863
78.436
78.9505
79.593
80.4029
81.4002
82.6044
84.0249
85.565
87.0161
88.2205
89.2048
90.0716
90.7747
90.4563
88.2326
86.009
87.8358
91.2322
89.0753
59.7682
71.0833
71.5305
71.9732
72.3996
72.8155
73.2213
73.6197
74.0122
74.4014
74.7876
75.1727
75.559
75.9483
76.3419
76.7415
77.1492
77.5653
77.9935
78.4463
78.9642
79.6077
80.4265
81.4519
82.7006
84.1871
85.7995
87.3194
88.6016
89.7002
90.7364
91.568
91.0561
88.2703
86.1104
88.3327
91.494
88.7482
59.3025
70.1201
70.5954
71.0633
71.5132
71.9485
72.3745
72.7906
73.1971
73.597
73.9907
74.3799
74.7679
75.1544
75.5411
75.9307
76.3258
76.7283
77.1383
77.5588
77.9912
78.4463
78.9667
79.6178
80.4506
81.5022
82.7984
84.3546
86.0378
87.6284
89.004
90.2519
91.502
92.5004
91.8983
88.7057
86.517
89.0725
92.0345
88.9463
59.09
68.0395
68.5801
69.104
69.6102
70.1069
70.5835
71.0428
71.4895
71.927
72.3541
72.7688
73.1752
73.5756
73.9693
74.3594
74.7471
75.1326
75.5193
75.9113
76.3079
76.7102
77.122
77.5455
77.9802
78.4386
78.9613
79.6199
80.47
81.5524
82.8969
84.522
86.2758
87.9378
89.4214
90.8559
92.359
93.5816
93.1249
89.7853
87.1062
89.9837
92.8103
89.5533
58.9252
65.6751
66.2924
66.8903
67.468
68.0326
68.5732
69.0962
69.6016
70.0901
70.5654
71.0267
71.4757
71.9116
72.336
72.751
73.1571
73.5562
73.9498
74.3399
74.7269
75.1126
75.4999
75.8906
76.2853
76.6878
77.101
77.5258
77.9627
78.4252
78.9532
79.6163
80.4852
81.6013
82.9997
84.6915
86.5142
88.2486
89.8532
91.5012
93.2832
94.781
94.6553
91.8052
88.0344
90.9938
93.5714
90.1691
58.819
63.6918
64.3699
65.0282
65.6716
66.2894
66.887
67.4646
68.0222
68.5625
69.0839
69.5901
70.0822
70.5579
71.0176
71.4636
71.8987
72.3238
72.7396
73.1442
73.5425
73.9368
74.3262
74.7124
75.0969
75.4833
75.8727
76.2652
76.6659
77.0773
77.5007
77.9399
78.4063
78.9412
79.6164
80.5038
81.6485
83.1001
84.8588
86.7461
88.5582
90.2949
92.1678
94.2277
95.9433
95.8171
94.0608
89.9924
92.0513
93.8682
89.8887
58.787
62.2616
62.9859
63.6927
64.372
65.0305
65.667
66.2844
66.8812
67.4587
68.0183
68.5588
69.0815
69.5884
70.0776
70.5519
71.0122
71.4595
71.8952
72.3186
72.7328
73.1378
73.5365
73.9294
74.3166
74.7027
75.0858
75.4697
75.857
76.2478
76.646
77.055
77.4777
77.9168
78.3852
78.9263
79.613
80.5193
81.6984
83.2017
85.0194
86.9751
88.8671
90.7355
92.8363
95.1514
96.8792
96.1622
93.7461
92.6785
93.5404
94.4898
90.7567
58.7947
17.7553
18.5284
19.3225
20.1396
20.9793
21.8416
22.7258
23.6318
24.5585
25.5052
26.4712
27.4555
28.4574
29.4754
30.5075
31.5537
32.612
33.6806
34.7588
35.8441
36.9349
38.03
39.1276
40.2261
41.3231
42.4168
43.5062
44.5899
45.6654
46.7304
47.7854
48.8277
49.8562
50.8695
51.8651
52.8448
53.806
54.7475
55.6686
56.5687
57.4484
58.3061
59.1413
59.9539
60.7451
61.5138
62.2652
62.9889
63.689
64.3698
65.0293
65.6671
66.2846
66.8822
67.4612
68.02
68.5608
69.0833
69.5897
70.0819
70.557
71.0165
71.4638
71.8997
72.3224
72.7345
73.1391
73.5375
73.9291
74.3158
74.6998
75.0814
75.4643
75.8494
76.2367
76.6318
77.0386
77.4592
77.8975
78.368
78.9142
79.6099
80.5348
81.7473
83.3007
85.1798
87.1996
89.1729
91.177
93.494
96.0426
97.6492
96.3827
93.4658
93.3463
93.9979
95.4859
93.0816
58.8595
17.7599
18.5313
19.3255
20.1426
20.9824
21.8448
22.7291
23.6352
24.5619
25.5088
26.4748
27.4591
28.4611
29.479
30.5112
31.5571
32.6156
33.6845
34.7624
35.8474
36.9383
38.0339
39.1313
40.2293
41.3264
42.4202
43.5098
44.5936
45.6692
46.7346
47.789
48.8315
49.8599
50.8729
51.8692
52.8478
53.8087
54.7507
55.6727
56.573
57.4524
58.3102
59.1453
59.9594
60.7504
61.5176
62.2635
62.9884
63.6909
64.3719
65.0315
65.6706
66.2882
66.8867
67.4659
68.026
68.5677
69.0913
69.5985
70.0897
70.5653
71.0263
71.4732
71.908
72.3315
72.7448
73.1492
73.5458
73.9359
74.3214
74.7049
75.085
75.4651
75.848
76.2336
76.6259
77.0279
77.4456
77.8821
78.3537
78.9037
79.6077
80.5496
81.7945
83.3975
85.3336
87.418
89.4689
91.6049
94.1352
96.9379
98.4421
96.4915
93.0641
92.5623
93.5605
95.8322
94.3927
59.0301
17.7586
18.531
19.325
20.1422
20.9819
21.8442
22.7285
23.6344
24.5611
25.508
26.474
27.4585
28.4602
29.4778
30.5104
31.5564
32.6144
33.6828
34.7607
35.8462
36.9372
38.0326
39.1302
40.228
41.325
42.4189
43.5082
44.5919
45.667
46.7325
47.7876
48.8301
49.8581
50.8706
51.8672
52.8468
53.8082
54.75
55.6717
56.5722
57.4517
58.3098
59.145
59.9588
60.7505
61.5192
62.266
62.9916
63.6958
64.3774
65.0367
65.6757
66.2938
66.893
67.4741
68.0344
68.5769
69.1039
69.6135
70.1055
70.5812
71.0437
71.4925
71.9274
72.3507
72.7635
73.1676
73.5641
73.9536
74.3378
74.7191
75.0976
75.4766
75.8573
76.2396
76.6292
77.0274
77.4411
77.8756
78.345
78.8971
79.6093
80.5654
81.8405
83.4938
85.4839
87.631
89.7527
92.0123
94.7616
97.8576
99.3211
96.6896
92.9245
92.2623
93.438
95.9246
94.7544
59.2021
17.7567
18.5313
19.3255
20.1424
20.9822
21.8447
22.7291
23.635
24.5614
25.5083
26.4746
27.4589
28.4606
29.4782
30.5107
31.5569
32.6151
33.6835
34.7612
35.8465
36.9375
38.0327
39.1301
40.2282
41.3251
42.4194
43.5097
44.5931
45.668
46.7342
47.7887
48.8302
49.8592
50.8729
51.87
52.8496
53.8105
54.7528
55.6748
56.5753
57.4548
58.314
59.1506
59.965
60.7575
61.5265
62.2731
62.9993
63.7037
64.386
65.0469
65.6872
66.3063
66.9054
67.4865
68.0497
68.5937
69.1195
69.6306
70.125
70.6029
71.0672
71.5175
71.9543
72.3789
72.7925
73.197
73.592
73.9786
74.3614
74.7422
75.119
75.495
75.8732
76.2544
76.6414
77.0372
77.4467
77.876
78.3432
78.896
79.6126
80.5826
81.8864
83.5866
85.6289
87.8296
90.0172
92.3994
95.3865
98.8438
100.426
97.1438
93.1578
92.3906
93.4807
96.0068
94.8023
59.3329
17.7586
18.5315
19.3255
20.1426
20.9824
21.8447
22.7291
23.635
24.5617
25.5085
26.4746
27.459
28.4605
29.4783
30.5109
31.5571
32.615
33.6836
34.7615
35.8468
36.9379
38.0333
39.131
40.2295
41.3266
42.4205
43.5101
44.5943
45.6698
46.7355
47.7903
48.8327
49.8616
50.8753
51.8724
52.8528
53.8147
54.756
55.6782
56.5805
57.4608
58.3199
59.1572
59.9722
60.7649
61.5354
62.2837
63.0097
63.7151
64.3983
65.0601
65.7007
66.3219
66.9238
67.5059
68.0694
68.6147
69.1431
69.6548
70.1508
70.6306
71.0954
71.5464
71.9839
72.4112
72.8263
73.2318
73.6283
74.0164