/*--------------------------------*- C++ -*----------------------------------*\
  =========                 |
  \\      /  F ield         | OpenFOAM: The Open Source CFD Toolbox
   \\    /   O peration     | Website:  https://openfoam.org
    \\  /    A nd           | Version:  9
     \\/     M anipulation  |
\*---------------------------------------------------------------------------*/
FoamFile
{
    format      ascii;
    class       volScalarField;
    location    "1500";
    object      p;
}
// * * * * * * * * * * * * * * * * * * * * * * * * * * * * * * * * * * * * * //

dimensions      [0 2 -2 0 0 0 0];

internalField   nonuniform List<scalar> 
13538
(
0.000782822
0.000778607
0.000784182
0.000781926
0.00078522
0.000785689
0.000788929
0.000790979
0.000794561
0.000797464
0.000801068
0.000804078
0.000807133
0.000809401
0.000811086
0.000811554
0.000810712
0.000807961
0.00080297
0.00079507
0.000783698
0.000768042
0.000747297
0.000720458
0.000686461
0.000644067
0.000591944
0.000528596
0.000452419
0.000361659
0.000254443
0.000128754
-1.75047e-05
-0.000186594
-0.000380831
-0.000602634
-0.000854476
-0.00113891
-0.00145843
-0.00181557
-0.00221273
-0.00265224
-0.00313606
-0.00366618
-0.00424411
-0.00487057
-0.0055461
-0.00627127
-0.00704544
-0.00786681
-0.00873328
-0.00964259
-0.0105914
-0.011576
-0.0125921
-0.0136351
-0.0147012
-0.0157857
-0.0168844
-0.0179944
-0.0191135
-0.0202398
-0.0213738
-0.0225179
-0.0236747
-0.0248503
-0.0260531
-0.0272937
-0.0285848
-0.0299425
-0.0313852
-0.0329354
-0.0346158
-0.0364562
-0.0384855
-0.0407339
-0.0432429
-0.0460452
-0.0491844
-0.0526904
-0.0566206
-0.0609894
-0.0658644
-0.0712137
-0.0771695
-0.0835608
-0.0906689
-0.0980438
-0.106281
-0.11439
-0.123683
-0.132015
-0.142322
-0.150071
-0.161513
-0.165269
-0.175879
-0.193732
-0.216746
0.000809825
0.000803895
0.000807645
0.000806321
0.000808517
0.000809728
0.000812591
0.000815188
0.000818776
0.00082221
0.000826092
0.000829703
0.000833263
0.000836254
0.000838656
0.000840009
0.000840103
0.000838448
0.000834656
0.000828134
0.000818305
0.000804426
0.000785706
0.000761211
0.000729922
0.000690681
0.000642229
0.000583164
0.000511983
0.000427053
0.000326617
0.000208806
7.16678e-05
-8.68721e-05
-0.000268964
-0.000476838
-0.000712735
-0.000978984
-0.00127785
-0.0016116
-0.00198238
-0.00239223
-0.00284291
-0.00333601
-0.0038728
-0.0044539
-0.00507977
-0.00575051
-0.00646528
-0.00722251
-0.00802017
-0.00885599
-0.00972682
-0.0106288
-0.0115584
-0.0125114
-0.0134837
-0.0144714
-0.015471
-0.0164795
-0.0174951
-0.0185165
-0.019544
-0.0205808
-0.0216296
-0.0226964
-0.0237899
-0.0249211
-0.0261019
-0.0273498
-0.0286826
-0.0301226
-0.0316952
-0.0334284
-0.0353539
-0.0375047
-0.0399196
-0.0426366
-0.0457036
-0.0491522
-0.0530468
-0.0573953
-0.0622882
-0.0676786
-0.0737327
-0.0802328
-0.087537
-0.0950898
-0.103656
-0.111977
-0.121753
-0.130237
-0.141223
-0.148823
-0.161395
-0.165779
-0.18012
-0.190702
-0.20735
0.000837408
0.000830019
0.000832412
0.000831559
0.000833036
0.000834633
0.000837328
0.000840274
0.000843965
0.000847809
0.000852005
0.000856136
0.000860203
0.000863862
0.000866971
0.000869172
0.000870195
0.000869618
0.000867031
0.000861895
0.000853639
0.000841575
0.000824942
0.000802868
0.000774389
0.000738422
0.000693785
0.000639172
0.00057318
0.000494291
0.000400876
0.000291212
0.000163486
1.57953e-05
-0.000153833
-0.00034743
-0.000567036
-0.000814745
-0.0010926
-0.00140263
-0.00174672
-0.00212667
-0.00254394
-0.00299995
-0.00349562
-0.00403141
-0.00460773
-0.00522433
-0.00588034
-0.00657423
-0.00730396
-0.00806719
-0.00886102
-0.00968183
-0.0105263
-0.0113906
-0.0122706
-0.0131628
-0.0140641
-0.0149718
-0.0158847
-0.0168015
-0.0177225
-0.0186509
-0.0195906
-0.0205472
-0.0215286
-0.0225464
-0.0236132
-0.0247457
-0.0259634
-0.027288
-0.0287442
-0.0303621
-0.032176
-0.0342169
-0.0365267
-0.0391483
-0.0421284
-0.0455048
-0.0493459
-0.0536599
-0.0585556
-0.0639758
-0.0701094
-0.0767131
-0.0842059
-0.0919438
-0.100833
-0.109386
-0.11963
-0.128336
-0.139974
-0.14762
-0.161061
-0.165521
-0.181906
-0.189422
-0.202689
0.00086344
0.000855132
0.000856613
0.000856024
0.000857112
0.000858927
0.000861647
0.000864892
0.000868821
0.00087309
0.000877715
0.000882423
0.000887116
0.000891528
0.000895473
0.000898643
0.000900751
0.00090141
0.000900214
0.000896663
0.000890205
0.000880196
0.000865913
0.000846542
0.000821174
0.000788797
0.000748311
0.000698499
0.000638052
0.00056557
0.000479541
0.000378376
0.000260416
0.000123906
-3.29409e-05
-0.000211982
-0.000415067
-0.00064406
-0.000900806
-0.00118707
-0.00150452
-0.0018547
-0.00223888
-0.00265817
-0.00311335
-0.00360468
-0.0041323
-0.00469586
-0.00529443
-0.00592633
-0.00658968
-0.00728208
-0.00800091
-0.00874237
-0.0095036
-0.0102808
-0.0110702
-0.011869
-0.0126734
-0.0134819
-0.0142929
-0.0151057
-0.0159209
-0.0167413
-0.017571
-0.0184158
-0.0192836
-0.0201866
-0.0211372
-0.0221507
-0.0232487
-0.0244524
-0.0257867
-0.0272837
-0.0289774
-0.0308992
-0.0330957
-0.0356112
-0.0384939
-0.0417838
-0.0455594
-0.0498309
-0.054715
-0.0601492
-0.0663483
-0.0730508
-0.0807267
-0.088644
-0.0978507
-0.106657
-0.117372
-0.126346
-0.138606
-0.14641
-0.160651
-0.165337
-0.182961
-0.187841
-0.19883
0.000888777
0.000879885
0.000880657
0.000880243
0.00088112
0.000883085
0.000885925
0.000889455
0.000893688
0.000898394
0.000903506
0.000908817
0.00091419
0.000919403
0.00092425
0.000928452
0.000931721
0.000933702
0.000933998
0.000932142
0.000927609
0.000919795
0.000908021
0.000891525
0.000869456
0.000840875
0.000804756
0.000759974
0.000705315
0.000639489
0.000561104
0.000468704
0.000360769
0.000235699
9.18743e-05
-7.23833e-05
-0.000258735
-0.000468839
-0.000704347
-0.000966785
-0.00125758
-0.00157808
-0.00192931
-0.00231219
-0.00272726
-0.00317463
-0.00365423
-0.00416558
-0.00470764
-0.00527877
-0.00587697
-0.00649989
-0.00714502
-0.00780886
-0.00848838
-0.00918017
-0.00988077
-0.0105873
-0.0112965
-0.0120068
-0.0127168
-0.0134262
-0.0141358
-0.0148484
-0.0155675
-0.0162996
-0.0170526
-0.0178383
-0.0186699
-0.0195619
-0.0205357
-0.0216133
-0.0228203
-0.0241889
-0.025754
-0.027549
-0.0296224
-0.032018
-0.0347918
-0.0379857
-0.041682
-0.0458972
-0.0507506
-0.0561883
-0.0624443
-0.0692335
-0.0770764
-0.0851828
-0.0947052
-0.103786
-0.114991
-0.124251
-0.137142
-0.145193
-0.160182
-0.165056
-0.183328
-0.186783
-0.196418
0.000913309
0.000904113
0.000904347
0.000904085
0.00090488
0.000906981
0.000910007
0.000913837
0.000918425
0.000923597
0.000929246
0.000935205
0.000941318
0.000947387
0.000953205
0.000958515
0.000963035
0.000966434
0.000968333
0.000968295
0.000965825
0.000960358
0.000951258
0.000937817
0.000919244
0.000894666
0.000863134
0.00082361
0.000774976
0.000716047
0.000645554
0.000562159
0.000464484
0.000351082
0.00022048
7.11882e-05
-9.82702e-05
-0.000289379
-0.000503585
-0.000742206
-0.00100644
-0.00129742
-0.001616
-0.00196282
-0.00233825
-0.00274225
-0.00317465
-0.00363472
-0.00412132
-0.0046329
-0.00516732
-0.00572229
-0.00629531
-0.00688321
-0.00748276
-0.00809082
-0.00870415
-0.00931987
-0.00993524
-0.0105488
-0.0111591
-0.0117657
-0.0123699
-0.0129743
-0.0135828
-0.0142018
-0.0148388
-0.0155052
-0.0162146
-0.0169819
-0.0178278
-0.0187752
-0.019849
-0.0210826
-0.0225114
-0.0241722
-0.0261111
-0.0283773
-0.0310302
-0.0341143
-0.0377133
-0.0418553
-0.0466645
-0.0520924
-0.0583917
-0.0652532
-0.0732612
-0.0815503
-0.0913854
-0.100757
-0.112437
-0.122047
-0.135585
-0.143945
-0.159628
-0.164802
-0.183525
-0.186207
-0.194809
0.000937174
0.000927879
0.000927698
0.000927585
0.000928393
0.000930642
0.0009339
0.000938052
0.000943038
0.000948705
0.000954938
0.000961581
0.000968483
0.000975459
0.000982307
0.00098879
0.000994637
0.000999537
0.00100313
0.00100502
0.00100473
0.00100174
0.000995455
0.000985223
0.00097031
0.00094991
0.000923151
0.000889079
0.000846669
0.00079484
0.000732436
0.000658243
0.000571019
0.000469455
0.000352237
0.000218049
6.55656e-05
-0.000106496
-0.000299382
-0.000514219
-0.000752029
-0.0010137
-0.00129993
-0.00161111
-0.00194743
-0.00230875
-0.00269469
-0.00310441
-0.00353666
-0.00398981
-0.00446177
-0.00495027
-0.00545275
-0.00596615
-0.0064874
-0.00701337
-0.00754101
-0.00806767
-0.00859057
-0.00910845
-0.00962007
-0.0101248
-0.0106239
-0.0111205
-0.011618
-0.0121228
-0.0126429
-0.0131884
-0.0137734
-0.0144131
-0.015127
-0.015939
-0.016876
-0.0179681
-0.0192526
-0.0207685
-0.0225638
-0.0246907
-0.0272072
-0.0301671
-0.0336537
-0.0377087
-0.0424573
-0.047858
-0.054178
-0.0611104
-0.0692622
-0.0777334
-0.0878851
-0.0975418
-0.109733
-0.119712
-0.133906
-0.142658
-0.159033
-0.164577
-0.18363
-0.186141
-0.193891
0.000960386
0.000951149
0.000950659
0.000950707
0.0009516
0.000954021
0.00095755
0.000962055
0.000967473
0.000973669
0.00098052
0.00098789
0.000995627
0.00100356
0.0010115
0.00101921
0.00102646
0.00103294
0.00103832
0.00104222
0.00104422
0.00104383
0.00104049
0.00103361
0.0010225
0.00100644
0.000984615
0.000956163
0.000920152
0.000875597
0.000821453
0.000756628
0.00068
0.000590415
0.000486702
0.00036769
0.000232238
7.92464e-05
-9.23592e-05
-0.000283526
-0.000495087
-0.00072771
-0.000981907
-0.0012579
-0.00155571
-0.00187504
-0.00221534
-0.00257568
-0.00295463
-0.00335058
-0.00376146
-0.00418484
-0.00461825
-0.00505867
-0.00550317
-0.0059487
-0.00639234
-0.00683159
-0.00726344
-0.00768688
-0.00810056
-0.00850442
-0.00889962
-0.00928874
-0.00967491
-0.0100651
-0.010467
-0.0108902
-0.0113491
-0.011858
-0.0124369
-0.0131092
-0.013903
-0.0148476
-0.0159806
-0.0173432
-0.0189847
-0.0209598
-0.0233278
-0.0261485
-0.0295095
-0.0334576
-0.0381243
-0.0434805
-0.0497994
-0.0567888
-0.0650656
-0.0737199
-0.0841737
-0.094146
-0.106842
-0.117227
-0.132112
-0.141312
-0.158392
-0.164396
-0.183713
-0.186502
-0.193883
0.000982984
0.00097392
0.000973207
0.000973435
0.000974473
0.000977097
0.000980928
0.000985816
0.000991698
0.000998454
0.00100596
0.00101409
0.0010227
0.00103164
0.00104071
0.00104972
0.00105842
0.00106655
0.0010738
0.00107982
0.0010842
0.0010865
0.00108622
0.00108281
0.00107564
0.00106405
0.00104731
0.00102462
0.000995149
0.000958011
0.000912264
0.000856933
0.000791024
0.000713517
0.000623379
0.0005196
0.000401186
0.000267214
0.000116788
-5.08468e-05
-0.000236364
-0.000440254
-0.000662802
-0.000904135
-0.001164
-0.00144204
-0.00173756
-0.0020494
-0.00237619
-0.00271613
-0.00306717
-0.00342685
-0.00379279
-0.00416187
-0.00453119
-0.00489786
-0.00525917
-0.00561237
-0.0059547
-0.00628516
-0.0066022
-0.00690612
-0.00719806
-0.0074798
-0.00775487
-0.00803031
-0.00831311
-0.00861266
-0.00894293
-0.00931928
-0.00976029
-0.0102888
-0.0109336
-0.0117245
-0.0127001
-0.0139013
-0.0153786
-0.0171902
-0.0193964
-0.0220625
-0.0252801
-0.0291014
-0.0336652
-0.0389584
-0.0452516
-0.0522794
-0.0606627
-0.0694966
-0.0802396
-0.0905346
-0.103741
-0.114578
-0.130161
-0.139882
-0.157707
-0.164271
-0.183838
-0.18717
-0.194887
0.00100499
0.000996183
0.000995325
0.000995746
0.000996978
0.000999839
0.001004
0.0010093
0.00101568
0.00102302
0.00103122
0.00104015
0.00104967
0.00105965
0.0010699
0.00108025
0.00109047
0.00110032
0.0011095
0.0011177
0.00112455
0.00112965
0.00113253
0.00113269
0.00112957
0.00112257
0.00111102
0.00109422
0.00107141
0.0010418
0.00100456
0.000958819
0.000903711
0.000838338
0.000761812
0.000673268
0.000571869
0.000456845
0.000327473
0.000183156
2.34261e-05
-0.000152055
-0.000343407
-0.000550585
-0.000773179
-0.00101069
-0.00126224
-0.00152659
-0.0018023
-0.00208748
-0.00238
-0.0026774
-0.0029773
-0.00327665
-0.0035725
-0.00386188
-0.00414231
-0.00441095
-0.00466531
-0.00490424
-0.00512603
-0.00533089
-0.00551996
-0.00569508
-0.00585966
-0.00601996
-0.00618341
-0.00635834
-0.00655816
-0.00679952
-0.00709981
-0.00748155
-0.00797345
-0.00860466
-0.00941466
-0.0104462
-0.0117503
-0.0133856
-0.0154171
-0.0179129
-0.020967
-0.0246435
-0.0290843
-0.0342942
-0.0405286
-0.0475857
-0.0560399
-0.0650491
-0.0760592
-0.0866974
-0.100434
-0.111739
-0.12805
-0.13836
-0.15697
-0.164215
-0.18415
-0.188198
-0.195938
0.00102642
0.00101793
0.00101699
0.00101763
0.00101909
0.00102222
0.00102674
0.00103248
0.00103938
0.00104734
0.00105625
0.00106601
0.00107648
0.00108753
0.00109902
0.00111075
0.00112254
0.00113415
0.00114533
0.00115578
0.00116518
0.00117314
0.00117927
0.00118309
0.00118412
0.0011818
0.00117554
0.00116473
0.00114867
0.00112668
0.00109802
0.00106195
0.00101769
0.000964477
0.000901569
0.000828229
0.000743778
0.000647588
0.000539101
0.000417876
0.000283615
0.000136173
-2.44572e-05
-0.000198022
-0.00038401
-0.00058174
-0.000790207
-0.00100811
-0.00123381
-0.00146546
-0.00170078
-0.00193736
-0.00217271
-0.00240382
-0.00262784
-0.00284165
-0.00304277
-0.00322849
-0.00339634
-0.00354499
-0.0036727
-0.00377986
-0.00386711
-0.00393644
-0.00399083
-0.00403571
-0.00407887
-0.00412899
-0.00419772
-0.00430163
-0.00445821
-0.00468993
-0.00502446
-0.00549076
-0.00612945
-0.00698357
-0.00810393
-0.00955205
-0.0113933
-0.0137035
-0.0165765
-0.020089
-0.0243812
-0.0294795
-0.0356395
-0.0426894
-0.0511897
-0.0603688
-0.0716147
-0.0826239
-0.0968601
-0.108688
-0.125771
-0.136721
-0.156168
-0.164178
-0.184648
-0.189602
-0.197563
0.0010473
0.00103915
0.0010382
0.00103906
0.00104079
0.00104422
0.00104912
0.00105532
0.00106277
0.00107137
0.00108102
0.00109163
0.00110308
0.00111525
0.00112799
0.00114116
0.00115455
0.00116798
0.00118121
0.00119398
0.00120598
0.00121688
0.00122632
0.00123388
0.00123913
0.00124157
0.00124069
0.00123593
0.0012267
0.00121239
0.00119237
0.00116599
0.0011326
0.00109155
0.00104223
0.000984029
0.000916408
0.000838889
0.000751087
0.000652699
0.000543579
0.00042374
0.000293348
0.000152801
2.74794e-06
-0.000155987
-0.000322294
-0.000494687
-0.000671538
-0.000850873
-0.00103036
-0.0012075
-0.0013798
-0.00154421
-0.00169796
-0.00183783
-0.0019614
-0.00206583
-0.00214873
-0.00220853
-0.00224368
-0.00225444
-0.00224062
-0.00220457
-0.00214951
-0.00207983
-0.00200238
-0.00192665
-0.00186364
-0.00182915
-0.00183986
-0.00191791
-0.00209018
-0.00238728
-0.00284961
-0.00351759
-0.00444518
-0.00569393
-0.00733217
-0.00943945
-0.0121112
-0.0154365
-0.0195546
-0.0245172
-0.0305726
-0.0375954
-0.0461133
-0.0554358
-0.0668938
-0.078279
-0.0929912
-0.105408
-0.123275
-0.134929
-0.155293
-0.164131
-0.185244
-0.191263
-0.199842
0.00106761
0.00105985
0.00105893
0.00106003
0.00106206
0.0010658
0.00107112
0.0010778
0.00108581
0.00109508
0.0011055
0.00111699
0.00112944
0.00114274
0.00115678
0.00117141
0.00118645
0.00120174
0.00121706
0.00123219
0.00124684
0.00126074
0.00127355
0.00128492
0.00129445
0.00130171
0.00130626
0.00130761
0.00130525
0.00129867
0.00128731
0.00127063
0.0012481
0.00121919
0.00118338
0.00114023
0.0010893
0.00103027
0.000962913
0.000887052
0.000802715
0.000710044
0.000609376
0.000501222
0.000386388
0.000265805
0.000140752
1.28329e-05
-0.000116311
-0.000244512
-0.000369509
-0.000488678
-0.000599424
-0.000698723
-0.00078368
-0.000851324
-0.000899007
-0.000923738
-0.000923168
-0.000895693
-0.00083987
-0.000755394
-0.000641852
-0.000501332
-0.000337209
-0.00015325
4.39128e-05
0.000245697
0.000441681
0.000615874
0.000752756
0.000830911
0.000823575
0.000700202
0.000421596
-5.33637e-05
-0.000779026
-0.0018163
-0.00323973
-0.00512658
-0.00757759
-0.0106937
-0.0146151
-0.0194097
-0.0253281
-0.0322913
-0.0407959
-0.0502342
-0.0618792
-0.0736402
-0.0888175
-0.101865
-0.120523
-0.132951
-0.154334
-0.164062
-0.185968
-0.193092
-0.202695
0.00108738
0.00108002
0.00107917
0.00108053
0.00108287
0.00108696
0.0010927
0.00109989
0.00110849
0.00111843
0.00112964
0.00114203
0.00115551
0.00116998
0.00118533
0.00120144
0.00121817
0.00123535
0.00125281
0.00127033
0.00128768
0.00130462
0.00132085
0.00133606
0.00134992
0.00136205
0.00137207
0.00137957
0.00138411
0.00138526
0.00138257
0.00137559
0.00136388
0.00134703
0.00132466
0.00129641
0.00126203
0.00122128
0.00117409
0.00112044
0.00106046
0.000994487
0.00092297
0.000846576
0.000766212
0.00068297
0.000598269
0.000513745
0.000431184
0.000352838
0.000281033
0.000218454
0.000167772
0.000132001
0.00011415
0.000117066
0.000143721
0.000196946
0.000279262
0.000392478
0.000537919
0.000716473
0.000928343
0.00117163
0.00144394
0.00174186
0.00205843
0.00238624
0.00271541
0.00303086
0.00331714
0.00355355
0.0037139
0.00376797
0.00367928
0.00340369
0.00288711
0.00207113
0.000878239
-0.000775795
-0.0029885
-0.00586855
-0.00956543
-0.014163
-0.0199149
-0.0267715
-0.0352316
-0.0447558
-0.0565555
-0.0686838
-0.0843076
-0.0980164
-0.117488
-0.130762
-0.153222
-0.163926
-0.186839
-0.195102
-0.20656
0.00110659
0.00109965
0.00109891
0.00110054
0.00110322
0.00110767
0.00111385
0.00112156
0.00113076
0.0011414
0.00115341
0.00116672
0.00118124
0.0011969
0.00121359
0.00123121
0.00124965
0.00126875
0.00128836
0.00130831
0.0013284
0.00134841
0.00136809
0.00138718
0.00140539
0.00142242
0.00143794
0.0014516
0.00146305
0.00147193
0.00147789
0.00148056
0.00147962
0.00147475
0.00146569
0.00145221
0.00143415
0.00141144
0.00138413
0.00135232
0.00131628
0.00127651
0.00123358
0.00118827
0.00114164
0.00109493
0.00104961
0.00100741
0.000970337
0.000940605
0.000920647
0.000913266
0.000921125
0.000947237
0.000994831
0.0010668
0.00116613
0.00129565
0.00145794
0.00165513
0.00188881
0.00215977
0.00246876
0.00281385
0.00319314
0.00360397
0.00403961
0.00449309
0.00495504
0.00541248
0.00584937
0.00624521
0.0065767
0.0068121
0.00691668
0.00684779
0.00654839
0.00596259
0.00501279
0.00360857
0.00165205
-0.000969334
-0.00441161
-0.00878422
-0.0143291
-0.0210486
-0.0294155
-0.038989
-0.0509126
-0.0633746
-0.0794439
-0.0938449
-0.114142
-0.128329
-0.151951
-0.163674
-0.18777
-0.197258
-0.210645
0.00112526
0.00111875
0.00111815
0.00112005
0.00112308
0.00112791
0.00113454
0.00114279
0.00115261
0.00116396
0.00117679
0.00119102
0.0012066
0.00122346
0.00124151
0.00126066
0.00128082
0.00130186
0.00132366
0.00134606
0.0013689
0.001392
0.00141516
0.00143815
0.00146074
0.00148268
0.0015037
0.00152352
0.00154187
0.00155846
0.00157302
0.00158529
0.00159503
0.00160203
0.00160613
0.00160724
0.00160529
0.00160035
0.00159258
0.00158224
0.00156971
0.00155561
0.00154066
0.00152575
0.0015121
0.00150101
0.00149413
0.00149325
0.00150047
0.00151813
0.00154868
0.00159501
0.00165995
0.00174651
0.00185788
0.00199714
0.0021674
0.00237151
0.00261216
0.00289168
0.00321185
0.00357364
0.00397802
0.00442374
0.00490913
0.00543162
0.00598567
0.00656468
0.00715948
0.00775847
0.008346
0.00890252
0.00940662
0.00982742
0.0101295
0.0102718
0.010198
0.00985154
0.00915496
0.0080175
0.00633502
0.00399023
0.000828838
-0.00327903
-0.00858432
-0.0151155
-0.0233483
-0.0329236
-0.0449226
-0.0577043
-0.074186
-0.0892934
-0.11043
-0.12559
-0.150525
-0.163243
-0.188696
-0.199388
-0.214884
0.00114339
0.0011373
0.00113687
0.00113905
0.00114244
0.00114767
0.00115477
0.00116356
0.001174
0.00118608
0.00119973
0.00121491
0.00123156
0.00124963
0.00126904
0.00128974
0.00131163
0.00133463
0.00135862
0.00138349
0.0014091
0.00143531
0.00146195
0.00148885
0.00151582
0.00154266
0.00156918
0.00159514
0.00162036
0.00164462
0.00166772
0.00168951
0.00170982
0.00172856
0.00174567
0.00176115
0.00177507
0.00178761
0.00179904
0.00180976
0.00182029
0.00183131
0.00184371
0.00185853
0.00187705
0.00190073
0.0019313
0.00197066
0.00202101
0.00208482
0.0021646
0.00226329
0.00238371
0.00252909
0.00270261
0.00290748
0.00314692
0.00342391
0.00374124
0.0041013
0.00450614
0.00495728
0.0054555
0.00600024
0.0065904
0.00722321
0.00789427
0.00859792
0.00932545
0.0100657
0.010804
0.0115229
0.0122007
0.012808
0.0133115
0.0136695
0.0138285
0.0137296
0.0132968
0.0124404
0.0110513
0.00900634
0.00615231
0.00234001
-0.00268164
-0.00898221
-0.01703
-0.0265482
-0.0385883
-0.0516427
-0.068509
-0.0843206
-0.106324
-0.122512
-0.148809
-0.162575
-0.189608
-0.201352
-0.219074
0.00116096
0.0011553
0.00115506
0.00115752
0.00116129
0.00116693
0.0011745
0.00118384
0.00119492
0.00120773
0.00122221
0.00123834
0.00125607
0.00127535
0.00129614
0.00131839
0.00134203
0.00136698
0.00139318
0.00142052
0.0014489
0.00147822
0.00150835
0.00153916
0.0015705
0.00160224
0.00163422
0.0016663
0.00169834
0.0017302
0.00176178
0.00179298
0.00182374
0.00185407
0.00188399
0.00191363
0.00194315
0.00197285
0.00200311
0.00203446
0.00206754
0.00210316
0.00214229
0.00218611
0.00223602
0.00229357
0.00236064
0.00243919
0.00253154
0.00264023
0.00276787
0.0029174
0.00309185
0.00329449
0.00352857
0.00379743
0.00410426
0.00445228
0.0048445
0.00528336
0.00577118
0.0063098
0.00690027
0.00754243
0.00823565
0.00897757
0.00976484
0.0105916
0.0114505
0.0123317
0.013221
0.0141021
0.0149545
0.0157508
0.0164581
0.0170352
0.0174315
0.0175879
0.0174297
0.0168681
0.015788
0.0140691
0.0115466
0.00806432
0.00336545
-0.00265823
-0.0104702
-0.0198767
-0.0319017
-0.0451608
-0.0623778
-0.0788823
-0.101794
-0.119042
-0.146853
-0.161647
-0.190529
-0.203133
-0.223087
0.00117799
0.00117275
0.00117271
0.00117547
0.00117962
0.00118567
0.00119372
0.00120362
0.00121535
0.00122888
0.00124421
0.00126128
0.00128009
0.0013006
0.00132277
0.00134657
0.00137195
0.00139887
0.00142727
0.00145708
0.00148824
0.00152066
0.00155427
0.00158896
0.00162466
0.00166127
0.00169869
0.00173683
0.00177563
0.00181502
0.00185497
0.00189547
0.00193654
0.00197828
0.00202082
0.00206436
0.00210921
0.00215573
0.00220445
0.00225599
0.0023111
0.00237072
0.00243594
0.00250803
0.00258852
0.00267908
0.00278166
0.00289837
0.00303151
0.00318382
0.00335797
0.00355693
0.00378396
0.00404228
0.00433527
0.00466641
0.00503891
0.00545609
0.00592132
0.00643719
0.00700631
0.00763043
0.00831135
0.00904916
0.00984356
0.0106932
0.011595
0.0125437
0.0135332
0.0145541
0.015594
0.0166376
0.0176651
0.0186506
0.0195631
0.0203634
0.0210021
0.0214209
0.0215461
0.0212893
0.0205357
0.0191632
0.016999
0.0138792
0.00954706
0.00384355
-0.00367814
-0.0129025
-0.0248386
-0.0382506
-0.0557887
-0.0729289
-0.0967683
-0.115134
-0.14457
-0.160456
-0.191491
-0.204674
-0.22732
0.00119446
0.00118964
0.00118983
0.00119288
0.00119741
0.00120388
0.00121241
0.00122288
0.00123525
0.00124952
0.00126568
0.00128371
0.0013036
0.00132533
0.00134888
0.00137423
0.00140135
0.00143023
0.00146083
0.0014931
0.00152702
0.00156253
0.0015996
0.00163816
0.00167818
0.00171962
0.00176242
0.00180657
0.00185206
0.00189889
0.0019471
0.00199676
0.00204798
0.00210094
0.00215587
0.00221307
0.00227293
0.00233593
0.0024027
0.00247398
0.0025506
0.00263364
0.00272429
0.00282393
0.00293421
0.00305686
0.00319395
0.00334768
0.00352054
0.0037152
0.00393453
0.00418158
0.00445962
0.00477201
0.00512225
0.0055139
0.00595035
0.00643504
0.00697141
0.00756238
0.00821074
0.00891874
0.00968816
0.0105199
0.0114137
0.012369
0.0133835
0.0144528
0.0155713
0.0167312
0.0179207
0.0191256
0.0203278
0.0215034
0.0226221
0.0236476
0.024532
0.0252193
0.0256361
0.0256939
0.0252818
0.0242728
0.0224955
0.0197732
0.0158404
0.0105199
0.00334382
-0.00563102
-0.0174129
-0.0309046
-0.0486937
-0.0664483
-0.0911855
-0.110716
-0.141921
-0.15895
-0.192542
-0.206124
-0.23102
0.00121037
0.00120597
0.00120639
0.00120974
0.00121465
0.00122154
0.00123056
0.00124159
0.00125461
0.00126962
0.00128662
0.0013056
0.00132657
0.00134951
0.00137443
0.00140132
0.00143018
0.00146101
0.00149379
0.00152851
0.00156517
0.00160375
0.00164425
0.00168665
0.00173095
0.00177716
0.0018253
0.00187538
0.00192746
0.00198162
0.00203797
0.00209665
0.00215785
0.00222183
0.00228891
0.00235948
0.00243404
0.00251316
0.00259756
0.0026881
0.00278571
0.00289157
0.00300698
0.00313343
0.00327267
0.00342651
0.00359712
0.00378685
0.00399821
0.00423403
0.00449717
0.00479088
0.00511844
0.0054834
0.00588923
0.00633967
0.00683824
0.00738859
0.00799429
0.00865849
0.0093842
0.010174
0.01103
0.0119534
0.0129451
0.0140043
0.0151294
0.0163175
0.0175636
0.0188603
0.0201982
0.021564
0.0229401
0.0243049
0.0256314
0.0268831
0.0280146
0.0289741
0.0296888
0.0300708
0.0300123
0.0293852
0.0280181
0.025728
0.0222363
0.0173492
0.0105863
0.0019216
-0.00961367
-0.0231021
-0.0410606
-0.0593967
-0.0849883
-0.10572
-0.138755
-0.157067
-0.193491
-0.207469
-0.235383
0.00122174
0.00122239
0.00122604
0.00123134
0.00123865
0.00124816
0.00125975
0.00127341
0.00128916
0.00130699
0.00132692
0.00134895
0.0013731
0.00139938
0.00142781
0.00145839
0.00149115
0.0015261
0.00156325
0.00160262
0.00164424
0.00168813
0.00173433
0.00178286
0.00183379
0.00188718
0.00194311
0.00200169
0.00206307
0.00212741
0.00219495
0.00226593
0.00234071
0.00241969
0.00250335
0.00259226
0.00268712
0.00278873
0.00289804
0.0030161
0.0031442
0.00328369
0.00343618
0.00360354
0.0037877
0.00399086
0.00421548
0.00446419
0.00473989
0.0050456
0.00538452
0.00576012
0.00617604
0.00663585
0.00714339
0.00770237
0.00831655
0.00898961
0.00972506
0.0105262
0.0113958
0.0123363
0.0133495
0.0144366
0.0155977
0.0168318
0.0181366
0.0195079
0.0209404
0.0224246
0.0239492
0.0254986
0.0270524
0.0285858
0.030064
0.0314452
0.032679
0.0336959
0.034411
0.0347178
0.0344908
0.0335532
0.0317207
0.0287127
0.0243086
0.0180235
0.00976345
-0.00144768
-0.0148336
-0.0328745
-0.0517159
-0.0781617
-0.100089
-0.135015
-0.154747
-0.194276
-0.208624
-0.240303
0.00123784
0.00124178
0.00124746
0.0012552
0.00126519
0.00127734
0.00129164
0.00130811
0.00132677
0.00134763
0.00137073
0.00139608
0.00142371
0.00145365
0.00148594
0.00152061
0.0015577
0.00159725
0.00163931
0.00168393
0.00173117
0.00178111
0.00183382
0.00188939
0.00194795
0.00200963
0.0020746
0.00214307
0.00221526
0.00229147
0.00237204
0.00245739
0.002548
0.00264444
0.00274738
0.00285759
0.00297596
0.00310355
0.0032415
0.00339119
0.0035541
0.00373189
0.00392655
0.00414009
0.00437484
0.00463331
0.00491822
0.00523254
0.00557946
0.00596223
0.00638441
0.00684971
0.00736185
0.00792475
0.00854237
0.00921859
0.00995716
0.0107619
0.0116364
0.0125838
0.0136067
0.0147076
0.015888
0.0171487
0.0184897
0.0199089
0.0214034
0.0229689
0.0245978
0.0262795
0.028
0.0297417
0.0314813
0.0331859
0.0348179
0.0363283
0.0376512
0.0387049
0.0393864
0.0395722
0.0390862
0.0377393
0.0352516
0.0313808
0.0256329
0.0178517
0.00706479
-0.0061206
-0.0241356
-0.0433672
-0.070616
-0.0937635
-0.13069
-0.151927
-0.19481
-0.209696
-0.24593
0.00127116
0.00128163
0.00129434
0.00130927
0.00132646
0.00134594
0.00136773
0.00139187
0.0014184
0.00144737
0.0014788
0.00151277
0.00154933
0.00158853
0.00163045
0.00167516
0.00172274
0.00177328
0.0018269
0.00188371
0.00194386
0.0020075
0.00207483
0.00214606
0.00222147
0.00230134
0.00238605
0.00247599
0.00257167
0.00267364
0.00278254
0.00289915
0.00302431
0.003159
0.00330437
0.00346165
0.00363231
0.00381794
0.00402029
0.00424141
0.00448344
0.00474876
0.00504002
0.00535998
0.00571179
0.00609855
0.00652377
0.00699104
0.00750417
0.00806706
0.00868362
0.00935805
0.0100944
0.0108966
0.0117687
0.0127145
0.0137375
0.0148409
0.0160273
0.0172988
0.0186569
0.0201022
0.0216338
0.0232494
0.0249456
0.0267161
0.0285528
0.0304423
0.0323694
0.0343132
0.0362442
0.038126
0.0399138
0.0415463
0.0429429
0.0440064
0.0446154
0.0445987
0.0437623
0.0418306
0.0385434
0.0333969
0.0261829
0.0159088
0.00304413
-0.0148257
-0.0343579
-0.0622894
-0.0866579
-0.125671
-0.148534
-0.195057
-0.210713
-0.25178
0.00129748
0.00131073
0.00132629
0.00134419
0.00136447
0.00138718
0.00141236
0.00144005
0.00147032
0.00150324
0.00153886
0.00157728
0.00161856
0.0016628
0.00171011
0.0017606
0.00181439
0.00187162
0.00193246
0.00199709
0.00206571
0.00213857
0.00221594
0.00229814
0.00238553
0.00247853
0.00257762
0.00268337
0.00279641
0.00291746
0.00304736
0.00318705
0.00333761
0.00350024
0.0036763
0.00386731
0.00407495
0.00430111
0.00454788
0.00481748
0.00511243
0.0054354
0.00578933
0.00617732
0.00660267
0.00706896
0.00757988
0.0081393
0.00875125
0.00941984
0.0101493
0.010944
0.011808
0.0127454
0.0137605
0.0148571
0.0160385
0.0173082
0.0186685
0.0201216
0.0216688
0.0233099
0.0250441
0.0268687
0.0287788
0.0307673
0.0328239
0.0349341
0.0370795
0.0392345
0.0413654
0.04343
0.0453718
0.0471157
0.0485668
0.0496058
0.0500726
0.0497718
0.0484272
0.0457647
0.0412777
0.0347124
0.0250618
0.01265
-0.00494082
-0.0246133
-0.0531601
-0.0786755
-0.119808
-0.144449
-0.194948
-0.211561
-0.257544
0.00132652
0.00134269
0.00136128
0.00138236
0.00140596
0.00143215
0.00146099
0.00149255
0.00152691
0.00156417
0.0016044
0.00164772
0.00169425
0.00174411
0.00179745
0.00185442
0.00191519
0.00197998
0.00204899
0.00212249
0.00220076
0.00228412
0.00237295
0.00246767
0.00256876
0.00267677
0.00279233
0.00291614
0.003049
0.00319182
0.00334564
0.00351159
0.00369097
0.00388522
0.00409596
0.00432495
0.00457415
0.00484573
0.00514201
0.00546559
0.00581924
0.00620597
0.00662897
0.00709163
0.00759762
0.00815072
0.00875495
0.00941439
0.0101333
0.0109161
0.0117671
0.0126909
0.0136918
0.0147742
0.0159422
0.0171997
0.0185502
0.0199971
0.0215428
0.0231894
0.0249375
0.0267875
0.0287374
0.0307841
0.032922
0.0351421
0.0374334
0.0397779
0.0421538
0.0445314
0.0468716
0.0491213
0.0512125
0.0530547
0.0545333
0.0554948
0.0557462
0.0550152
0.0530211
0.049257
0.0434224
0.0344995
0.0226681
0.00551725
-0.0141667
-0.0431431
-0.0697347
-0.112988
-0.139553
-0.194335
-0.21205
-0.263784
0.00265661
0.0027733
0.00289839
0.00303267
0.00317699
0.00333237
0.00349988
0.00368076
0.00387638
0.00408825
0.00431807
0.00456771
0.00483918
0.00513475
0.00545683
0.00580809
0.00619135
0.00660978
0.00706662
0.00756532
0.00810967
0.00870351
0.00935097
0.0100563
0.0108239
0.0116583
0.012564
0.0135457
0.014608
0.0157555
0.0169927
0.018324
0.0197532
0.0212841
0.02292
0.0246634
0.026516
0.028479
0.0305515
0.0327317
0.0350158
0.0373967
0.0398648
0.0424056
0.0449994
0.0476211
0.0502346
0.0527914
0.0552291
0.0574623
0.0593869
0.0608521
0.0616696
0.0615804
0.0602944
0.0573068
0.0522776
0.0441881
0.0330767
0.0165169
-0.00297918
-0.0322178
-0.0597676
-0.105115
-0.13371
-0.193009
-0.211998
-0.26988
0.00300141
0.00314584
0.00330129
0.00346882
0.00364961
0.00384494
0.00405626
0.00428517
0.00453345
0.00480304
0.00509605
0.00541479
0.00576177
0.00613975
0.00655164
0.00700066
0.00749011
0.0080236
0.00860496
0.00923818
0.00992742
0.0106771
0.0114917
0.0123759
0.0133344
0.0143722
0.0154939
0.0167046
0.018009
0.0194118
0.0209174
0.0225299
0.0242534
0.0260909
0.0280452
0.0301181
0.0323102
0.0346208
0.0370476
0.0395855
0.00325552
0.00342174
0.00360104
0.00379466
0.00400396
0.00423047