/*--------------------------------*- C++ -*----------------------------------*\
  =========                 |
  \\      /  F ield         | OpenFOAM: The Open Source CFD Toolbox
   \\    /   O peration     | Website:  https://openfoam.org
    \\  /    A nd           | Version:  9
     \\/     M anipulation  |
\*---------------------------------------------------------------------------*/
FoamFile
{
    format      ascii;
    class       surfaceScalarField;
    location    "1500";
    object      phi;
}
// * * * * * * * * * * * * * * * * * * * * * * * * * * * * * * * * * * * * * //

dimensions      [0 3 -1 0 0 0 0];

internalField   nonuniform List<scalar> 
26826
(
0.00500042
-0.490639
0.489992
0.0052346
-0.462525
0.462291
0.00529783
-0.436183
0.43612
0.00522311
-0.411423
0.411498
0.00508035
-0.388039
0.388182
0.00486874
-0.366034
0.366246
0.00469239
-0.345306
0.345482
0.00444724
-0.325716
0.325961
0.00423715
-0.3073
0.30751
0.00399279
-0.289885
0.290129
0.00378335
-0.273471
0.27368
0.00357417
-0.25799
0.258199
0.0033307
-0.243373
0.243616
0.00315656
-0.229619
0.229793
0.00298262
-0.216625
0.216799
0.00278466
-0.204347
0.204545
0.00261795
-0.192791
0.192957
0.00245828
-0.181881
0.182041
0.00231255
-0.171593
0.171739
0.00217037
-0.161879
0.162022
0.00204211
-0.152722
0.15285
0.00191735
-0.14408
0.144205
0.00179957
-0.135929
0.136047
0.00168527
-0.128238
0.128352
0.00158136
-0.120986
0.12109
0.0014809
-0.114142
0.114243
0.0013908
-0.107689
0.10778
0.00130065
-0.101596
0.101686
0.00121736
-0.0958562
0.0959395
0.0011409
-0.0904378
0.0905143
0.00106435
-0.085324
0.0854005
0.000994587
-0.0805043
0.0805741
0.000928139
-0.0759581
0.0760246
0.000864979
-0.0716681
0.0717312
0.000805104
-0.0676238
0.0676837
0.000748466
-0.063808
0.0638647
0.000695077
-0.0602069
0.0602603
0.000644894
-0.0568135
0.0568637
0.000597893
-0.053614
0.053661
0.000550624
-0.050591
0.0506383
0.000506497
-0.0477445
0.0477886
0.00046554
-0.0450573
0.0450982
0.000424234
-0.0425222
0.0425635
0.000386057
-0.040136
0.0401741
0.000350993
-0.0378811
0.0379162
0.000315574
-0.0357541
0.0357895
0.000283282
-0.0337515
0.0337837
0.000250659
-0.0318593
0.0318919
0.000217662
-0.030074
0.030107
0.000187816
-0.0283957
0.0284255
0.000157679
-0.0268033
0.0268335
0.000130801
-0.0253108
0.0253377
0.000103644
-0.0238938
0.0239209
7.97717e-05
-0.0225661
0.02259
5.33191e-05
-0.0213041
0.0213305
2.91893e-05
-0.0201185
0.0201426
6.05793e-06
-0.0189986
0.0190217
-1.6341e-05
-0.0179411
0.0179635
-3.7558e-05
-0.0169434
0.0169646
-5.77198e-05
-0.0160012
0.0160214
-7.71967e-05
-0.015112
0.0151315
-9.56218e-05
-0.0142724
0.0142908
-0.000113228
-0.0134797
0.0134973
-0.000129491
-0.0127315
0.0127477
-0.000145487
-0.0120245
0.0120405
-0.000160062
-0.0113576
0.0113722
-0.000173646
-0.0107274
0.010741
-0.000186182
-0.0101331
0.0101456
-0.000197911
-0.00957175
0.00958348
-0.000208874
-0.00904202
0.00905298
-0.000219124
-0.00854173
0.00855199
-0.000227956
-0.00807016
0.00807899
-0.000236178
-0.00762493
0.00763315
-0.000243757
-0.00720535
0.00721293
-0.000250262
-0.00680904
0.00681554
-0.000255572
-0.00643629
0.0064416
-0.000260907
-0.00608386
0.0060892
-0.000265126
-0.00575249
0.00575671
-0.000268227
-0.00544035
0.00544346
-0.000271263
-0.0051453
0.00514833
-0.000273253
-0.00486878
0.00487077
-0.000274239
-0.00460728
0.00460826
-0.000274962
-0.00436115
0.00436188
-0.000274357
-0.00413005
0.00412944
-0.000273213
-0.00391212
0.00391097
-0.000270449
-0.00370736
0.00370459
-0.000267156
-0.00351339
0.0035101
-0.000263298
-0.00333118
0.00332732
-0.00025716
-0.0031596
0.00315346
-0.000249816
-0.00299775
0.0029904
-0.000240724
-0.00284417
0.00283508
-0.000229379
-0.00270075
0.0026894
-0.000215478
-0.00256271
0.00254881
-0.000198903
-0.00243527
0.00241869
-0.000177871
-0.0023083
0.00228727
-0.000155812
-0.00220943
0.00218737
-0.000130953
-0.00214301
0.00211815
-7.30176e-05
-0.00206566
0.00200773
-0.00120047
0.00112745
0.0129137
-0.490528
0.0126301
-0.462241
0.0122096
-0.435763
0.0116859
-0.410899
0.011163
-0.387516
0.0106406
-0.365512
0.0100841
-0.344749
0.00956253
-0.325194
0.00900684
-0.306744
0.00852058
-0.289398
0.00803465
-0.272985
0.00754897
-0.257504
0.00713266
-0.242956
0.00671656
-0.229203
0.00633521
-0.216244
0.00596784
-0.203979
0.00562481
-0.192448
0.00529572
-0.181552
0.00498403
-0.171282
0.00469316
-0.161589
0.00441619
-0.152445
0.00415657
-0.143821
0.00391081
-0.135683
0.00368236
-0.12801
0.00346083
-0.120765
0.00325658
-0.113938
0.00305923
-0.107492
0.00287911
-0.101416
0.00270585
-0.0956829
0.00253943
-0.0902714
0.00238672
-0.0851713
0.00224428
-0.0803619
0.00210515
-0.075819
0.00197623
-0.0715392
0.00185059
-0.0674982
0.00173512
-0.0636926
0.00162634
-0.0600981
0.0015208
-0.056708
0.00142191
-0.0535151
0.00132967
-0.0504987
0.00124062
-0.0476555
0.0011547
-0.0449713
0.00107886
-0.0424464
0.000999233
-0.0400563
0.000929653
-0.0378115
0.000859732
-0.0356842
0.000796431
-0.0336881
0.000732793
-0.0317956
0.000675774
-0.030017
0.000614968
-0.0283349
0.000564281
-0.0267526
0.000513342
-0.0252599
0.00046564
-0.0238461
0.000414293
-0.0225148
0.000371876
-0.0212616
0.00032934
-0.0200759
0.000288783
-0.018958
0.000250409
-0.0179027
0.000213407
-0.0169064
0.000178631
-0.0159665
0.000145399
-0.0150788
0.000113813
-0.0142408
8.41282e-05
-0.01345
5.58462e-05
-0.0127032
2.9678e-05
-0.0119984
4.56277e-06
-0.0113325
-1.88216e-05
-0.0107041
-4.08691e-05
-0.010111
-6.12923e-05
-0.00955132
-8.04467e-05
-0.00902286
-9.83941e-05
-0.00852379
-0.000114603
-0.00805395
-0.00012965
-0.00760988
-0.000144189
-0.00719081
-0.000156578
-0.00679665
-0.00016884
-0.00642402
-0.000179274
-0.00607343
-0.000188887
-0.00574288
-0.000197729
-0.00543151
-0.000204449
-0.00513858
-0.000211519
-0.00486171
-0.000216886
-0.00460191
-0.000220882
-0.00435716
-0.000223929
-0.004127
-0.000226443
-0.0039096
-0.000228512
-0.00370529
-0.000228145
-0.00351376
-0.000226213
-0.00333311
-0.000223395
-0.00316241
-0.000218768
-0.00300238
-0.000212181
-0.00285076
-0.000203272
-0.00270966
-0.000191762
-0.00257422
-0.000176209
-0.00245082
-0.000157636
-0.00232687
-0.000136601
-0.00223047
-0.000116304
-0.00216331
-6.68798e-05
-0.00211509
-0.00126735
0.0208955
-0.489693
0.020025
-0.461371
0.0191555
-0.434893
0.0182173
-0.409961
0.0173144
-0.386613
0.0163773
-0.364575
0.0155099
-0.343882
0.0146428
-0.324327
0.0138452
-0.305946
0.0130479
-0.288601
0.01232
-0.272257
0.0116615
-0.256846
0.0109687
-0.242263
0.0103452
-0.228579
0.0097219
-0.21562
0.00918169
-0.203439
0.00864853
-0.191914
0.00815005
-0.181053
0.00767932
-0.170811
0.00723288
-0.161142
0.00681415
-0.152027
0.00641621
-0.143423
0.00604251
-0.13531
0.00568957
-0.127657
0.00535738
-0.120432
0.00504247
-0.113623
0.00474826
-0.107198
0.00446784
-0.101136
0.00420118
-0.0954162
0.00395519
-0.0900254
0.00371946
-0.0849355
0.00349399
-0.0801364
0.00328567
-0.0756107
0.00308755
-0.071341
0.00290309
-0.0673137
0.00272536
-0.0635148
0.00255778
-0.0599306
0.00240034
-0.0565505
0.00224958
-0.0533643
0.00210893
-0.0503581
0.00197491
-0.0475214
0.00185098
-0.0448474
0.00173022
-0.0423256
0.00161953
-0.0399456
0.00150851
-0.0377005
0.00140756
-0.0355832
0.00130974
-0.0335903
0.00121855
-0.0317044
0.00113051
-0.029929
0.00104912
-0.0282535
0.000970929
-0.0266744
0.000892462
-0.0251814
0.000824233
-0.0237778
0.000755767
-0.0224463
0.000692082
-0.0211979
0.00063106
-0.0200149
0.000572768
-0.0188997
0.000517564
-0.0178475
0.000465524
-0.0168544
0.000415773
-0.0159167
0.000368515
-0.0150315
0.000324275
-0.0141965
0.000281905
-0.0134076
0.00024231
-0.0126636
0.000204444
-0.0119605
0.000169001
-0.011297
0.000135804
-0.0106709
0.000104722
-0.01008
7.5109e-05
-0.00952171
4.741e-05
-0.00899516
2.21662e-05
-0.00849854
-1.958e-06
-0.00802983
-2.4627e-05
-0.00758721
-4.5047e-05
-0.00717039
-6.43235e-05
-0.00677737
-8.20217e-05
-0.00640633
-9.82285e-05
-0.00605722
-0.000113202
-0.0057279
-0.000126707
-0.00541801
-0.000139508
-0.00512577
-0.000150576
-0.00485065
-0.000160287
-0.0045922
-0.000168629
-0.00434882
-0.000176084
-0.00411955
-0.000181792
-0.0039039
-0.000185923
-0.00370116
-0.000188757
-0.00351092
-0.000190759
-0.00333111
-0.000190832
-0.00316234
-0.000188863
-0.00300434
-0.000184367
-0.00285525
-0.000177875
-0.00271615
-0.000168716
-0.00258338
-0.000156034
-0.0024635
-0.000139761
-0.00234315
-0.000119732
-0.0022505
-0.000103006
-0.00218003
-6.07662e-05
-0.00215733
-0.00132811
0.0289462
-0.488271
0.027558
-0.459983
0.0261358
-0.433471
0.0248178
-0.408643
0.0235003
-0.385296
0.0222178
-0.363292
0.0210048
-0.342669
0.0198267
-0.323149
0.0187181
-0.304838
0.0176789
-0.287562
0.0166746
-0.271253
0.015705
-0.255876
0.0148048
-0.241363
0.0139739
-0.227748
0.0131778
-0.214824
0.012406
-0.202667
0.0116931
-0.191202
0.0110217
-0.180382
0.0103851
-0.170174
0.0097865
-0.160544
0.0092191
-0.151459
0.00868632
-0.14289
0.00818467
-0.134808
0.00770724
-0.127179
0.00726093
-0.119986
0.0068388
-0.113201
0.00643737
-0.106796
0.00606356
-0.100762
0.00570696
-0.0950597
0.00537102
-0.0896894
0.00505573
-0.0846203
0.00476106
-0.0798417
0.00447663
-0.0753262
0.00421278
-0.0710772
0.00395914
-0.0670601
0.00372259
-0.0632783
0.00349967
-0.0597076
0.00328689
-0.0563377
0.0030877
-0.0531651
0.00289864
-0.050169
0.00271967
-0.0473425
0.00255083
-0.0446786
0.00238858
-0.0421634
0.00223644
-0.0397935
0.00209437
-0.0375584
0.00195891
-0.0354478
0.00183008
-0.0334615
0.00170787
-0.0315822
0.00159227
-0.0298134
0.00148336
-0.0281446
0.00137761
-0.0265687
0.0012821
-0.0250859
0.00118631
-0.0236821
0.00110081
-0.0223608
0.00101338
-0.0211105
0.000933472
-0.019935
0.000858144
-0.0188244
0.000786183
-0.0177755
0.000717796
-0.016786
0.000653537
-0.0158524
0.000592601
-0.0149706
0.000534659
-0.0141386
0.000480418
-0.0133534
0.000428473
-0.0126116
0.000379851
-0.0119119
0.000333949
-0.0112511
0.000290691
-0.0106276
0.00025013
-0.0100394
0.000211683
-0.00948326
0.00017601
-0.00895949
0.000142009
-0.00846454
0.000110392
-0.00799821
8.12891e-05
-0.00755811
5.39483e-05
-0.00714305
2.79559e-05
-0.00675138
4.22742e-06
-0.0063826
-1.79692e-05
-0.00603503
-3.79659e-05
-0.00570791
-5.72185e-05
-0.00539875
-7.40075e-05
-0.00510899
-8.93904e-05
-0.00483526
-0.000103414
-0.00457817
-0.000116125
-0.0043361
-0.00012756
-0.00410811
-0.000136875
-0.00389458
-0.000144967
-0.00369307
-0.00015187
-0.00350402
-0.000156299
-0.00332668
-0.000158756
-0.00315988
-0.000159557
-0.00300354
-0.000157581
-0.00285723
-0.000154172
-0.00271956
-0.000146861
-0.00259069
-0.000136633
-0.00247373
-0.000121813
-0.00235797
-0.000104263
-0.00226805
-9.08323e-05
-0.00219347
-5.59374e-05
-0.00219222
-0.00138405
0.0369621
-0.486229
0.0350217
-0.458042
0.0331851
-0.431634
0.0314181
-0.406876
0.0296861
-0.383563
0.0280581
-0.361664
0.0264996
-0.34111
0.0250106
-0.32166
0.0236255
-0.303453
0.0222408
-0.286177
0.0209945
-0.270007
0.019783
-0.254665
0.0186755
-0.240256
0.0176026
-0.226675
0.0165991
-0.213821
0.0156475
-0.201716
0.014748
-0.190302
0.0139003
-0.179534
0.0131012
-0.169375
0.012347
-0.159789
0.0116379
-0.15075
0.0109668
-0.142219
0.0103303
-0.134172
0.00973528
-0.126584
0.00917139
-0.119422
0.00863859
-0.112668
0.00814033
-0.106298
0.00766276
-0.100284
0.00721969
-0.0946166
0.00679728
-0.089267
0.00640242
-0.0842254
0.00602128
-0.0794606
0.00567111
-0.0749761
0.00533462
-0.0707407
0.00501871
-0.0667442
0.00471989
-0.0629795
0.00443816
-0.0594259
0.00417351
-0.0560731
0.00392246
-0.0529141
0.00368499
-0.0499315
0.00346109
-0.0471186
0.00324729
-0.0444648
0.00304707
-0.0419632
0.00286039
-0.0396068
0.00268034
-0.0373784
0.00251038
-0.0352778
0.00234704
-0.0332981
0.00219726
-0.0314325
0.00205416
-0.0296703
0.00191769
-0.0280081
0.00178791
-0.0264389
0.0016648
-0.0249628
0.00154849
-0.0235657
0.0014389
-0.0222512
0.00133544
-0.0210071
0.00123677
-0.0198363
0.00114283
-0.0187304
0.00105447
-0.0176872
0.000970979
-0.0167025
0.000891408
-0.0157729
0.000816462
-0.0148957
0.000745436
-0.0140676
0.000678181
-0.0132861
0.000614827
-0.0125483
0.000555006
-0.0118521
0.0004986
-0.0111947
0.000445432
-0.0105744
0.00039521
-0.00998917
0.000348126
-0.00943618
0.00030379
-0.00891515
0.000262353
-0.0084231
0.000223222
-0.00795908
0.0001862
-0.00752109
0.000151835
-0.00710869
0.000120204
-0.00671975
9.0395e-05
-0.00635279
6.25921e-05
-0.00600722
3.61947e-05
-0.00568151
1.29824e-05
-0.00537554
-9.50713e-06
-0.0050865
-2.95753e-05
-0.0048152
-4.83278e-05
-0.00455942
-6.49889e-05
-0.00431944
-7.99691e-05
-0.00409313
-9.33328e-05
-0.00388122
-0.000104774
-0.00368163
-0.00011394
-0.00349485
-0.000121851
-0.00331877
-0.000127199
-0.00315454
-0.000130746
-0.003
-0.000132511
-0.00285547
-0.000130545
-0.00272152
-0.000125725
-0.00259551
-0.000118013
-0.00248144
-0.000106916
-0.00236906
-9.09843e-05
-0.00228398
-7.91151e-05
-0.00220533
-5.04234e-05
-0.00222091
-0.00143447
0.0450125
-0.483634
0.0425543
-0.455584
0.0402343
-0.429314
0.0380183
-0.40466
0.0359063
-0.381451
0.0339329
-0.359691
0.0319943
-0.339172
0.0302289
-0.319895
0.0284637
-0.301688
0.0269062
-0.28462
0.0253489
-0.268449
0.0239301
-0.253246
0.0225461
-0.238872
0.0212313
-0.225361
0.0200204
-0.21261
0.0188925
-0.200588
0.0178097
-0.189219
0.0167893
-0.178514
0.0158242
-0.16841
0.0149145
-0.15888
0.0140566
-0.149892
0.0132473
-0.141409
0.0124863
-0.133411
0.0117668
-0.125865
0.0110888
-0.118744
0.0104453
-0.112025
0.00983987
-0.105693
0.00927237
-0.0997169
0.00873246
-0.0940767
0.00822703
-0.0887616
0.00774225
-0.0837406
0.00729537
-0.0790137
0.00686565
-0.0745463
0.00646344
-0.0703385
0.00608181
-0.0663625
0.00572418
-0.0626218
0.00538367
-0.0590854
0.00506368
-0.0557531
0.00476075
-0.0526112
0.00447488
-0.0496457
0.00420604
-0.0468497
0.0039508
-0.0442095
0.00370911
-0.0417215
0.00348098
-0.0393787
0.00326293
-0.0371603
0.00306192
-0.0350768
0.00287104
-0.0331073
0.00268677
-0.0312482
0.00251264
-0.0294962
0.00235209
-0.0278475
0.00219826
-0.0262851
0.00205112
-0.0248157
0.00191074
-0.0234254
0.00178061
-0.0221211
0.00165688
-0.0208833
0.00153968
-0.0197191
0.0014286
-0.0186194
0.00132313
-0.0175817
0.00122323
-0.0166026
0.00112898
-0.0156786
0.00103994
-0.0148066
0.000955587
-0.0139832
0.000875815
-0.0132064
0.00080094
-0.0124734
0.000729687
-0.0117808
0.000662853
-0.0111279
0.000599663
-0.0105113
0.00053984
-0.00992935
0.00048378
-0.00938012
0.000430955
-0.00886233
0.00038118
-0.00837333
0.000334739
-0.00791264
0.000290967
-0.00747732
0.000250067
-0.00706779
0.000211323
-0.00668101
0.000175329
-0.00631679
0.000141797
-0.00597369
0.000110787
-0.0056505
8.155e-05
-0.00534631
5.44003e-05
-0.00505935
2.96598e-05
-0.00479045
6.62757e-06
-0.00453639
-1.43998e-05
-0.00429841
-3.26228e-05
-0.00407491
-4.99541e-05
-0.00386389
-6.48645e-05
-0.00366671
-7.78531e-05
-0.00348187
-8.90048e-05
-0.00330762
-9.72297e-05
-0.00314631
-0.000104189
-0.00299304
-0.000106896
-0.00285276
-0.000108091
-0.00272033
-0.000106324
-0.00259728
-0.000101112
-0.00248665
-9.15742e-05
-0.0023786
-7.80279e-05
-0.00229752
-7.03396e-05
-0.00221302
-4.63647e-05
-0.00224489
-0.00148084
0.0529936
-0.480487
0.0500867
-0.452677
0.0472833
-0.426511
0.0446183
-0.401995
0.0421264
-0.37896
0.0397384
-0.357303
0.0375235
-0.336957
0.035378
-0.317749
0.0334056
-0.299715
0.031468
-0.282682
0.0297033
-0.266685
0.0280081
-0.251551
0.0264166
-0.23728
0.0249291
-0.223873
0.0235108
-0.211192
0.0221375
-0.199215
0.0208715
-0.187953
0.0196748
-0.177317
0.0185472
-0.167282
0.0174854
-0.157818
0.0164789
-0.148886
0.0155347
-0.140465
0.0146423
-0.132518
0.0137949
-0.125017
0.0129993
-0.117949
0.0122521
-0.111278
0.0115429
-0.104983
0.0108751
-0.0990491
0.0102453
-0.0934468
0.00964992
-0.0881663
0.0090925
-0.0831832
0.00855916
-0.0784804
0.00806026
-0.0740474
0.00758887
-0.0698671
0.00714497
-0.0659186
0.00672165
-0.0621985
0.00632925
-0.058693
0.00595393
-0.0553778
0.00559913
-0.0522564
0.00526487
-0.0493114
0.00494765
-0.0465325
0.00465093
-0.0439128
0.00437124
-0.0414418
0.00410166
-0.0391091
0.00385258
-0.0369113
0.00361361
-0.0348378
0.00338821
-0.0328819
0.00317638
-0.0310364
0.00297815
-0.0292979
0.00278314
-0.0276525
0.00260525
-0.0261072
0.00243404
-0.0246445
0.0022765
-0.0232678
0.00212193
-0.0219665
0.0019787
-0.0207401
0.00184193
-0.0195824
0.00171313
-0.0184906
0.0015912
-0.0174598
0.00147579
-0.0164872
0.00136643
-0.0155693
0.00126304
-0.0147032
0.00116561
-0.0138858
0.0010733
-0.013114
0.000986001
-0.0123861
0.000904027
-0.0116988
0.000826362
-0.0110502
0.000753135
-0.010438
0.000683998
-0.00986021
0.000619174
-0.00931529
0.000557915
-0.00880107
0.000500154
-0.00831557
0.000445949
-0.00785844
0.00039536
-0.00742673
0.00034714
-0.00701957
0.000302281
-0.00663615
0.000260229
-0.00627474
0.00022106
-0.00593452
0.000184078
-0.00561352
0.00014986
-0.00531209
0.000117716
-0.0050272
8.83244e-05
-0.00476106
6.13468e-05
-0.00450941
3.60081e-05
-0.00427308
1.30424e-05
-0.00405194
-7.08333e-06
-0.00384376
-2.60385e-05
-0.00364776
-4.21164e-05
-0.00346579
-5.61096e-05
-0.00329362
-6.84201e-05
-0.003134
-7.70248e-05
-0.00298443
-8.35597e-05
-0.00284622
-8.72934e-05
-0.0027166
-8.74593e-05
-0.00259711
-8.48333e-05
-0.00248928
-7.84934e-05
-0.00238494
-6.74719e-05
-0.00230855
-6.0631e-05
-0.00221986
-4.15471e-05
-0.00226397
-0.00152239
0.0609746
-0.476857
0.0575154
-0.449218
0.0542977
-0.423293
0.0512528
-0.39895
0.0483464
-0.376053
0.045613
-0.354569
0.0430181
-0.334362
0.0405962
-0.315327
0.0382783
-0.297397
0.0361333
-0.280537
0.0340231
-0.264575
0.032086
-0.249614
0.0302872
-0.235481
0.0285231
-0.222109
0.0268974
-0.209566
0.025379
-0.197696
0.0239298
-0.186504
0.0225602
-0.175947
0.0212667
-0.165989
0.0200494
-0.1566
0.0189011
-0.147737
0.0178152
-0.139379
0.016788
-0.131491
0.0158265
-0.124056
0.0149168
-0.117039
0.0140555
-0.110416
0.013246
-0.104174
0.0124779
-0.0982811
0.0117581
-0.0927271
0.0110763
-0.0874844
0.0104324
-0.0825393
0.00982645
-0.0778744
0.00925493
-0.0734759
0.00871436
-0.0693265
0.00820476
-0.065409
0.0077261
-0.0617199
0.007268
-0.0582349
0.00684081
-0.0549506
0.00643416
-0.0518497
0.00605148
-0.0489287
0.00569279
-0.0461738
0.00535115
-0.0435712
0.00502653
-0.0411172
0.00472589
-0.0388085
0.00443883
-0.0366242
0.00416535
-0.0345643
0.00390892
-0.0326254
0.00366608
-0.0307935
0.00343683
-0.0290687
0.0032212
-0.0274369
0.00301573
-0.0259017
0.00282046
-0.0244492
0.00263542
-0.0230828
0.00246299
-0.0217941
0.0022988
-0.0205759
0.00214385
-0.0194274
0.00199687
-0.0183436
0.00185778
-0.0173207
0.00172674
-0.0163561
0.00160254
-0.0154451
0.00148541
-0.0145861
0.00137443
-0.0137748
0.00126974
-0.0130093
0.00117072
-0.0122871
0.00107747
-0.0116056
0.000988928
-0.0109617
0.000905915
-0.010355
0.00082772
-0.00978201
0.000753444
-0.00924102
0.000683736
-0.00873136
0.000618234
-0.00825007
0.000555998
-0.0077962
0.00049811
-0.00736884
0.000443623
-0.00696508
0.000392394
-0.00658492
0.000344126
-0.00622647
0.000298691
-0.00588909
0.000256728
-0.00557155
0.000217227
-0.00527259
0.000181172
-0.00499115
0.000146438
-0.00472633
0.000114772
-0.00447775
8.54736e-05
-0.00424378
5.85569e-05
-0.00402503
3.40059e-05
-0.00381921
1.1813e-05
-0.00362557
-7.49864e-06
-0.00344648
-2.47468e-05
-0.00327637
-3.89006e-05
-0.00311985
-5.14244e-05
-0.00297191
-6.06603e-05
-0.00283699
-6.70198e-05
-0.00271024
-7.02684e-05
-0.00259386
-6.96118e-05
-0.00248994
-6.57906e-05
-0.00238876
-5.73284e-05
-0.00231701
-5.24329e-05
-0.00222476
-3.80801e-05
-0.00227833
-0.00156047
0.0688865
-0.472709
0.0649785
-0.44531
0.0612774
-0.419592
0.0577836
-0.395456
0.0545318
-0.372801
0.051453
-0.351491
0.0485126
-0.331422
0.0457452
-0.31256
0.0431509
-0.294803
0.040695
-0.278081
0.038412
-0.262292
0.0361984
-0.2474
0.0341231
-0.233406
0.0321863
-0.220172
0.0303498
-0.207729
0.0286136
-0.19596
0.0269743
-0.184865
0.0254319
-0.174405
0.0239794
-0.164536
0.022603
-0.155224
0.0213096
-0.146444
0.0200853
-0.138155
0.0189337
-0.130339
0.0178477
-0.12297
0.0168204
-0.116012
0.0158519
-0.109448
0.0149387
-0.103261
0.0140772
-0.0974196
0.0132641
-0.091914
0.0124958
-0.0867162
0.0117724
-0.0818159
0.0110904
-0.0771924
0.0104427
-0.0728283
0.00983301
-0.0687168
0.00926115
-0.0648372
0.00871679
-0.0611755
0.00820681
-0.0577249
0.00772431
-0.0544681
0.00726925
-0.0513946
0.00683819
-0.0484977
0.00643112
-0.0457668
0.00604799
-0.043188
0.00568542
-0.0407546
0.00534332
-0.0384664
0.00501827
-0.0362991
0.00471376
-0.0342598
0.00442625
-0.0323379
0.00415239
-0.0305197
0.00389211
-0.0288084
0.00364894
-0.0271937
0.00341938
-0.0256722
0.00320351
-0.0242333
0.00299784
-0.0228771
0.00280209
-0.0215983
0.00261795
-0.0203918
0.00244385
-0.0192533
0.00227932
-0.018179
0.00212378
-0.0171652
0.00197654
-0.0162089
0.00183776
-0.0153063
0.00170622
-0.0144546
0.00158209
-0.0136507
0.00146501
-0.0128923
0.00135428
-0.0121764
0.00124941
-0.0115007
0.00115098
-0.0108633
0.00105756
-0.0102616
0.000969457
-0.00969391
0.000886777
-0.00915834
0.000808835
-0.00865342
0.000735231
-0.00817646
0.000666111
-0.00772708
0.000600394
-0.00730312
0.000538976
-0.00690366
0.000481235
-0.00652718
0.000427385
-0.00617262
0.000376703
-0.0058384
0.000328811
-0.00552366
0.000284019
-0.00522779
0.000242299
-0.00494943
0.000203632
-0.00468766
0.000167325
-0.00444144
0.000134083
-0.00421054
0.000103228
-0.00399417
7.46149e-05
-0.0037906
4.96934e-05
-0.00360065
2.62987e-05
-0.00342308
5.59379e-06
-0.00325567
-1.21266e-05
-0.00310213
-2.68896e-05
-0.00295715
-3.82072e-05
-0.00282567
-4.77744e-05
-0.00270067
-5.28615e-05
-0.00258878
-5.4695e-05
-0.0024881
-5.34398e-05
-0.00239002
-4.81577e-05
-0.00232229
-4.4261e-05
-0.00222866
-3.37629e-05
-0.00228882
-0.00159423
0.0767291
-0.468078
0.0723378
-0.440919
0.0682224
-0.415477
0.0643487
-0.391583
0.0606825
-0.369135
0.0572237
-0.348032
0.0539725
-0.32817
0.0509287
-0.309516
0.0480234
-0.291897
0.0452565
-0.275314
0.0426972
-0.259732
0.0402762
-0.244979
0.0379591
-0.231089
0.0358148
-0.218028
0.0337572
-0.205672
0.0318275
-0.19403
0.0300119
-0.183049
0.0282966
-0.17269
0.0266782
-0.162918
0.0251497
-0.153696
0.0237076
-0.145002
0.022352
-0.136799
0.021069
-0.129056
0.0198585
-0.121759
0.0187172
-0.11487
0.0176415
-0.108372
0.0166245
-0.102244
0.0156662
-0.0964613
0.0147598
-0.0910075
0.0139085
-0.0858649
0.0131021
-0.0810095
0.0123439
-0.0764342
0.0116271
-0.0721115
0.0109517
-0.0680414
0.0103142
-0.0641996
0.009711
-0.0605723
0.00914225
-0.0571561
0.00860441
-0.0539303
0.00809752
-0.0508878
0.00762152
-0.0480217
0.00716604
-0.0453113
0.00674148
-0.0427635
0.00634088
-0.040354
0.00595735
-0.0380828
0.00559781
-0.0359396
0.00526222
-0.0339242
0.00493679
-0.0320125
0.00463532
-0.0302182
0.00435095
-0.028524
0.00408021
-0.026923
0.00382312
-0.0254151
0.00358316
-0.0239934
0.00335344
-0.0226474
0.00313914
-0.021384
0.0029351
-0.0201877
0.00274202
-0.0190602
0.00255966
-0.0179967
0.00238767
-0.0169932
0.00222508
-0.0160463
0.00207113
-0.0151523
0.00192587
-0.0143093
0.00178835
-0.0135132
0.00165856
-0.0127625
0.00153601
-0.0120538
0.00142034
-0.0113851
0.0013112
-0.0107541
0.00120823
-0.0101586
0.00111091
-0.00959659
0.00101935
-0.00906678
0.000932657
-0.00856672
0.000851153
-0.00809496
0.000774469
-0.00765039
0.000702219
-0.00723087
0.000634108
-0.00683555
0.000570123
-0.00646319
0.000509666
-0.00611217
0.000452763
-0.0057815
0.000400309
-0.00547121
0.00035025
-0.00517773
0.000303587
-0.00490276
0.000259955
-0.00464403
0.00021973
-0.00440121
0.000182565
-0.00417337
0.000147229
-0.00395883
0.000115605
-0.00375897
8.61315e-05
-0.00357117
5.94979e-05
-0.00339645
3.61553e-05
-0.00323233
1.54442e-05
-0.00308142
-2.09958e-06
-0.0029396
-1.73024e-05
-0.00281047
-2.87956e-05
-0.00268918
-3.64194e-05
-0.00258115
-4.197e-05
-0.00248255
-4.30354e-05
-0.00238895
-3.91059e-05
-0.00232622
-3.80861e-05
-0.00222968
-3.02596e-05
-0.00229665
-0.00162449
0.0845027
-0.462928
0.0796971
-0.436113
0.0751328
-0.410912
0.0708447
-0.387295
0.0667986
-0.365089
0.0629944
-0.344228
0.0594323
-0.324608
0.0560085
-0.306093
0.0528268
-0.288716
0.0498181
-0.272305
0.0469823
-0.256896
0.0442849
-0.242282
0.041795
-0.228599
0.0394088
-0.215642
0.0371473
-0.20341
0.0350275
-0.191911
0.0330253
-0.181047
0.0311372
-0.170802
0.0293563
-0.161137
0.0276792
-0.152018
0.0260954
-0.143418
0.024598
-0.135302
0.0231905
-0.127649
0.0218556
-0.120424
0.0206002
-0.113615
0.0194173
-0.107189
0.0183
-0.101127
0.0172484
-0.0954097
0.016252
-0.0900111
0.0153143
-0.0849272
0.0144283
-0.0801235
0.0135906
-0.0755965
0.0128047
-0.0713256
0.0120601
-0.0672968
0.0113568
-0.0634963
0.0106949
-0.0599104
0.0100674
-0.0565286
0.00947769
-0.0533406
0.00892238
-0.0503324
0.00839455
-0.0474938
0.00790106
-0.0448178
0.00742813
-0.0422905
0.00698609
-0.039912
0.00656801
-0.0376648
0.00617739
-0.035549
0.00580038
-0.0335472
0.00545083
-0.0316629
0.00511833
-0.0298857
0.00480296
-0.0282086
0.00450811
-0.0266282
0.00422693
-0.0251339
0.00395941
-0.0237258
0.00371248
-0.0224005
0.00347344
-0.021145
0.00324951
-0.0199638
0.00303862
-0.0188493
0.00283879
-0.0177968
0.00264994
-0.0168043
0.00247118
-0.0158676
0.00230275
-0.0149839
0.00214353
-0.0141501
0.00199333
-0.013363
0.00185128
-0.0126204
0.00171682
-0.0119194
0.00159026
-0.0112585
0.00147029
-0.0106342
0.00135728
-0.0100456
0.0012511
-0.00949041
0.00115032
-0.008966
0.00105559
-0.00847199
0.000966012
-0.00800539
0.000881912
-0.00756629
0.000802553
-0.00715151
0.000727783
-0.00676078
0.000657244
-0.00639265
0.00059105
-0.00604597
0.000529224
-0.00571968
0.00047022
-0.0054122
0.00041559
-0.00512311
0.000364346
-0.00485152
0.000316474
-0.00459616
0.000271242
-0.00435598
0.000229365
-0.00413149
0.000190986
-0.00392046
0.000154717
-0.0037227
0.000121783
-0.00353824
9.22819e-05
-0.00336695
6.52814e-05
-0.00320533
4.16241e-05
-0.00305776
2.07174e-05
-0.0029187
3.38247e-06
-0.00279313
-1.06779e-05
-0.00267512
-2.13607e-05
-0.00257047
-2.87421e-05
-0.00247517
-3.21152e-05
-0.00238558
-3.13807e-05
-0.00232695
-3.18049e-05
-0.00222925
-2.70382e-05
-0.00230142
-0.00165153
0.0922071
-0.45733
0.0869181
-0.430824
0.081974
-0.405968
0.0772715
-0.382592
0.07288
-0.360697
0.0686959
-0.340044
0.0647883
-0.320701
0.0610882
-0.302392
0.0576302
-0.285258
0.054345
-0.26902
0.0512328
-0.253784
0.0483281
-0.239377
0.0455617
-0.225833
0.0429337
-0.213014
0.0405131
-0.20099
0.0381998
-0.189597
0.0360179
-0.178865
0.0339604
-0.168744
0.0320206
-0.159197
0.0301879
-0.150186
0.0284589
-0.141689
0.0268302
-0.133673
0.0252913
-0.12611
0.0238423
-0.118975
0.0224728
-0.112245
0.0211827
-0.105899
0.0199652
-0.099909
0.0188133
-0.0942578
0.0177304
-0.0889282
0.0167063
-0.083903
0.0157408
-0.079158
0.0148305
-0.0746862
0.0139719
-0.070467
0.0131582
-0.066483
0.0123927
-0.0627308
0.011672
-0.0591897
0.0109891
-0.0558458
0.0103476
-0.052699
0.00973698
-0.0497218
0.00916419
-0.0469211
0.00862234
-0.044276
0.00811484
-0.041783
0.00763134
-0.0394285
0.00717876
-0.0372122
0.00674671
-0.0351169
0.00633865
-0.0331392
0.00595803
-0.0312823
0.00559452
-0.0295222
0.00525154
-0.0278657
0.00492917
-0.0263058
0.00462387
-0.0248286
0.00433573
-0.0234377
0.00406129
-0.022126
0.00380504
-0.0208887
0.00356216
-0.0197209
0.00333173
-0.0186189
0.0031147
-0.0175798
0.00290942
-0.016599
0.0027156
-0.0156737
0.00253245
-0.0148008
0.00235919
-0.0139768
0.00219587
-0.0131996
0.00204127
-0.0124658
0.00189559
-0.0117737
0.00175815
-0.0111211
0.00162833
-0.0105043
0.00150553
-0.00992281
0.0013893
-0.00937419
0.00128019
-0.00885688
0.00117728
-0.00836908
0.00108001
-0.00790812
0.000988186
-0.00747447
0.000901753
-0.00706508
0.00082046
-0.00667949
0.000744249
-0.00631644
0.000671761
-0.00597349
0.000603807
-0.00565172
0.000540239
-0.00534864
0.000480394
-0.00506326
0.00042388
-0.00479501
0.000371031
-0.00454331
0.000321872
-0.00430682
0.000275713
-0.00408533
0.000233288
-0.00387803
0.000194383
-0.0036838
0.000158094
-0.00350195
0.00012428
-0.00333313
9.42577e-05
-0.0031753
6.70491e-05
-0.00303055
4.33456e-05
-0.00289499
2.32819e-05
-0.00277307
6.09711e-06
-0.00265793
-7.07164e-06
-0.0025573
-1.62628e-05
-0.00246598
-2.18732e-05
-0.00237997
-2.42535e-05
-0.00232457
-2.53198e-05
-0.00222819
-2.39833e-05
-0.00230275
-0.00167551
0.0998078
-0.451248
0.0941045
-0.425121
0.0887115
-0.400575
0.0836292
-0.37751
0.0788578
-0.355926
0.0743628
-0.335549
0.0701098
-0.316448
0.0661333
-0.298416
0.0623298
-0.281454
0.0588028
-0.265493
0.0554487
-0.25043
0.0523021
-0.23623
0.0492939
-0.222824
0.0464931
-0.210213
0.043841
-0.198337
0.041341
-0.187097
0.0389829
-0.176507
0.0367561
-0.166517
0.0346537
-0.157095
0.0326724
-0.148204
0.0308017
-0.139819
0.0290382
-0.13191
0.0273748
-0.124447
0.0258083
-0.117409
0.0243281
-0.110765
0.0229274
-0.104498
0.0216097
-0.0985912
0.0203679
-0.093016
0.0191951
-0.0877555
0.0180845
-0.0827924
0.0170429
-0.0781164
0.0160566
-0.0736999
0.0151254
-0.0695358
0.0142494
-0.065607
0.0134217
-0.0619031
0.0126387
-0.0584068
0.011904
-0.0551111
0.0112037
-0.0519987
0.0105516
-0.0490697
0.00993044
-0.0462999
0.00934366
-0.0436892
0.00879126
-0.0412306
0.00826978
-0.038907
0.00777575
-0.0367182
0.00730917
-0.0346503
0.00687352
-0.0327035
0.0064584
-0.0308672
0.00606731
-0.0291311
0.00569676
-0.0274951
0.00534678
-0.0259558
0.00501744
-0.0244992
0.00470519
-0.0231255
0.00441182
-0.0218326
0.00413356
-0.0206105
0.0038708
-0.0194582
0.00362285
-0.0183709
0.00338831
-0.0173453
0.00316687
-0.0163776
0.0029575
-0.0154644
0.00275972
-0.014603
0.00257328
-0.0137904
0.00239669
-0.0130231
0.00223021
-0.0122994
0.00207276
-0.0116162
0.00192409
-0.0109724
0.00178394
-0.0103642
0.00165177
-0.00979064
0.00152676
-0.00924918
0.00140898
-0.0087391
0.00129737
-0.00825748
0.00119277
-0.00780351
0.00109377
-0.00737547
0.00100051
-0.00697182
0.000912594
-0.00659157
0.000829511
-0.00623336
0.000751593
-0.00589557
0.000678162
-0.00557829
0.000609042
-0.00527952
0.000543641
-0.00499786
0.000482917
-0.00473428
0.00042585
-0.00448624
0.000372462
-0.00425344
0.000322327
-0.0040352
0.000275171
-0.00383087
0.000232184
-0.00364081
0.00019228
-0.00346205
0.000155708
-0.00329656
0.000122541
-0.00314214
9.23877e-05
-0.0030004
6.59192e-05
-0.00286852
4.25449e-05
-0.00274969
2.27853e-05
-0.00263817
7.12471e-06
-0.00254164
-5.03008e-06
-0.00245382
-1.34597e-05
-0.00237154
-1.76142e-05
-0.00232042
-2.00149e-05
-0.00222579
-2.11269e-05
-0.00230164
-0.00169664