/*--------------------------------*- C++ -*----------------------------------*\
  =========                 |
  \\      /  F ield         | OpenFOAM: The Open Source CFD Toolbox
   \\    /   O peration     | Website:  https://openfoam.org
    \\  /    A nd           | Version:  9
     \\/     M anipulation  |
\*---------------------------------------------------------------------------*/
FoamFile
{
    format      ascii;
    class       volScalarField;
    location    "1500";
    object      ReThetat;
}
// * * * * * * * * * * * * * * * * * * * * * * * * * * * * * * * * * * * * * //

dimensions      [0 0 0 0 0 0 0];

internalField   nonuniform List<scalar> 
13538
(
1049.05
1298.08
1383.91
1165.62
1146.68
1144.15
1142.02
1139.6
1137.01
1134.59
1132.14
1129.81
1127.49
1125.25
1123.04
1120.91
1118.82
1116.81
1114.87
1113.02
1111.27
1109.64
1108.17
1106.87
1105.78
1104.95
1104.43
1104.28
1104.57
1105.37
1106.75
1108.8
1111.58
1115.15
1119.54
1124.72
1130.61
1137.04
1143.72
1150.29
1156.31
1161.32
1164.89
1166.76
1166.84
1165.15
1161.92
1156.16
1149.26
1142.2
1135.06
1127.86
1120.6
1113.29
1105.92
1098.5
1091.02
1083.46
1075.82
1068.07
1060.2
1052.16
1043.91
1035.41
1026.61
1017.44
1007.86
997.82
987.265
976.171
964.53
952.368
939.753
926.78
913.445
899.756
885.97
872.462
859.34
846.467
833.8
821.435
809.477
797.977
786.851
776.034
765.743
755.979
746.371
736.601
727.486
719.06
707.531
688.987
645.074
585.901
564.791
545.926
537.956
1029.01
1248.47
1469.87
1169.83
1144.89
1141.74
1139.83
1137.54
1135.04
1132.65
1130.28
1127.98
1125.72
1123.52
1121.36
1119.27
1117.23
1115.27
1113.4
1111.62
1109.95
1108.42
1107.06
1105.9
1104.96
1104.31
1103.99
1104.06
1104.59
1105.64
1107.3
1109.63
1112.69
1116.52
1121.13
1126.5
1132.49
1138.93
1145.53
1151.91
1157.66
1162.33
1165.58
1167.16
1166.99
1165.15
1161.87
1156.07
1149.3
1142.33
1135.27
1128.15
1120.97
1113.72
1106.42
1099.06
1091.63
1084.12
1076.52
1068.81
1060.95
1052.91
1044.65
1036.12
1027.27
1018.03
1008.36
998.203
987.52
976.284
964.489
952.166
939.391
926.262
912.79
898.958
885.027
871.385
858.181
845.275
832.575
820.171
808.174
796.65
785.533
774.714
764.417
754.699
745.193
735.443
726.23
717.893
711.888
696.89
655.785
589.757
566.687
546.835
538.126
1013.28
1406.58
1466.33
1179.55
1146.64
1142.03
1140.25
1138.06
1135.6
1133.19
1130.83
1128.54
1126.3
1124.13
1122.01
1119.96
1117.98
1116.08
1114.28
1112.58
1111.01
1109.59
1108.34
1107.3
1106.51
1106
1105.83
1106.06
1106.74
1107.96
1109.76
1112.23
1115.4
1119.31
1123.96
1129.31
1135.23
1141.53
1147.93
1154.06
1159.52
1163.91
1166.89
1168.26
1167.95
1166.02
1162.71
1156.96
1150.26
1143.34
1136.31
1129.21
1122.05
1114.82
1107.53
1100.18
1092.76
1085.25
1077.63
1069.9
1062
1053.92
1045.59
1036.96
1028
1018.63
1008.8
998.47
987.591
976.142
964.127
951.576
938.575
925.232
911.552
897.528
883.402
869.595
856.282
843.314
830.576
818.124
806.081
794.531
783.424
772.618
762.332
752.665
743.268
733.564
724.405
715.783
708.799
699.666
662.387
591.568
567.84
547.378
538.229
1000.8
1359.79
1466.33
1189.26
1148.34
1141.9
1140.05
1138.01
1135.59
1133.17
1130.82
1128.53
1126.29
1124.11
1121.99
1119.95
1117.98
1116.09
1114.3
1112.62
1111.08
1109.69
1108.49
1107.5
1106.77
1106.33
1106.25
1106.57
1107.36
1108.69
1110.61
1113.19
1116.47
1120.49
1125.22
1130.62
1136.55
1142.82
1149.14
1155.14
1160.45
1164.68
1167.51
1168.76
1168.38
1166.43
1163.14
1157.48
1150.91
1144.06
1137.09
1130.03
1122.91
1115.72
1108.46
1101.14
1093.73
1086.23
1078.62
1070.87
1062.95
1054.81
1046.41
1037.7
1028.62
1019.11
1009.12
998.602
987.519
975.848
963.599
950.815
937.584
924.021
910.138
895.919
881.61
867.652
854.242
841.229
828.463
815.981
803.904
792.339
781.248
770.466
760.198
750.586
741.302
731.65
722.522
713.903
706.924
698.124
669.28
593.645
568.993
547.93
538.335
989.964
1386.46
1466.1
1201.05
1150.78
1142.03
1139.94
1138.05
1135.7
1133.28
1130.92
1128.63
1126.4
1124.24
1122.13
1120.1
1118.15
1116.29
1114.53
1112.89
1111.38
1110.05
1108.9
1107.98
1107.31
1106.96
1106.96
1107.37
1108.26
1109.68
1111.69
1114.35
1117.7
1121.76
1126.52
1131.9
1137.78
1143.96
1150.15
1156.01
1161.16
1165.24
1167.96
1169.15
1168.75
1166.83
1163.6
1158.12
1151.68
1144.91
1137.99
1130.98
1123.9
1116.74
1109.5
1102.19
1094.79
1087.29
1079.67
1071.89
1063.92
1055.72
1047.23
1038.41
1029.19
1019.51
1009.33
998.607
987.293
975.376
962.873
949.832
936.351
922.551
908.446
894.021
879.521
865.413
851.912
838.855
826.069
813.568
801.471
789.899
778.83
768.086
757.85
748.298
739.13
729.552
720.458
711.823
704.762
696.636
674.369
595.598
569.996
548.426
538.43
981.275
1147.71
1461.54
1216.08
1153.91
1142.33
1139.82
1138.05
1135.79
1133.37
1131.01
1128.72
1126.49
1124.33
1122.23
1120.21
1118.27
1116.42
1114.67
1113.05
1111.58
1110.27
1109.16
1108.27
1107.66
1107.35
1107.41
1107.88
1108.82
1110.3
1112.36
1115.07
1118.45
1122.52
1127.27
1132.62
1138.44
1144.54
1150.62
1156.37
1161.42
1165.42
1168.1
1169.28
1168.92
1167.08
1163.95
1158.71
1152.43
1145.75
1138.9
1131.94
1124.89
1117.76
1110.55
1103.26
1095.86
1088.36
1080.71
1072.89
1064.87
1056.58
1047.99
1039.04
1029.66
1019.79
1009.4
998.443
986.876
974.69
961.912
948.6
934.859
920.813
906.483
891.845
877.161
862.909
849.323
836.232
823.433
810.925
798.815
787.25
776.217
765.522
755.321
745.842
736.795
727.306
718.257
709.642
702.582
694.591
675.071
597.752
570.855
548.879
538.519
972.849
1172.88
1461.08
1232.95
1157.82
1142.88
1139.73
1138.05
1135.89
1133.49
1131.12
1128.83
1126.6
1124.44
1122.34
1120.32
1118.39
1116.55
1114.82
1113.21
1111.75
1110.47
1109.38
1108.53
1107.94
1107.67
1107.76
1108.27
1109.25
1110.76
1112.85
1115.56
1118.94
1123
1127.71
1133
1138.74
1144.73
1150.72
1156.37
1161.34
1165.29
1167.97
1169.2
1168.93
1167.21
1164.21
1159.27
1153.18
1146.62
1139.84
1132.93
1125.92
1118.82
1111.63
1104.34
1096.95
1089.43
1081.75
1073.88
1065.78
1057.4
1048.68
1039.57
1030.01
1019.93
1009.31
998.087
986.24
973.764
960.688
947.089
933.072
918.773
904.208
889.361
874.495
860.113
846.461
833.349
820.546
808.039
795.934
784.381
773.394
762.76
752.615
743.213
734.285
724.91
715.898
707.336
700.296
692.42
675.845
600.364
571.649
549.283
538.598
964.98
1296
1455.53
1252.55
1162.65
1143.68
1139.7
1138.04
1136
1133.62
1131.24
1128.94
1126.71
1124.55
1122.45
1120.44
1118.5
1116.67
1114.94
1113.34
1111.89
1110.62
1109.54
1108.7
1108.13
1107.88
1107.99
1108.5
1109.49
1111
1113.08
1115.78
1119.12
1123.13
1127.77
1132.98
1138.62
1144.52
1150.4
1155.97
1160.89
1164.84
1167.56
1168.89
1168.75
1167.19
1164.37
1159.77
1153.9
1147.47
1140.77
1133.92
1126.96
1119.89
1112.71
1105.43
1098.03
1090.48
1082.76
1074.83
1066.64
1058.14
1049.28
1039.99
1030.21
1019.9
1009.01
997.498
985.347
972.555
959.165
945.257
930.956
916.397
901.597
886.534
871.497
857.008
843.305
830.191
817.4
804.912
792.825
781.301
770.364
759.805
749.725
740.416
731.617
722.36
713.402
704.905
697.914
690.072
675.898
602.688
572.318
549.638
538.674
958.47
1196.26
1433.51
1278.41
1168.67
1144.73
1139.74
1138.03
1136.1
1133.77
1131.39
1129.07
1126.84
1124.67
1122.57
1120.55
1118.61
1116.77
1115.05
1113.45
1112
1110.72
1109.65
1108.81
1108.24
1107.99
1108.09
1108.6
1109.56
1111.05
1113.09
1115.74
1119.03
1122.95
1127.5
1132.6
1138.13
1143.92
1149.7
1155.2
1160.09
1164.07
1166.87
1168.32
1168.36
1167
1164.38
1160.19
1154.57
1148.29
1141.69
1134.91
1127.99
1120.95
1113.8
1106.52
1099.1
1091.51
1083.73
1075.72
1067.42
1058.78
1049.74
1040.25
1030.23
1019.65
1008.46
996.637
984.156
971.023
957.296
943.068
928.47
913.646
898.608
883.339
868.144
853.566
839.842
826.738
813.98
801.527
789.479
778.003
767.135
756.661
746.657
737.447
728.777
719.666
710.764
702.352
695.433
687.615
675.447
604.848
572.897
549.961
538.738
951.484
1362.97
1462.8
1317.65
1176.17
1145.93
1139.86
1138.03
1136.21
1133.93
1131.54
1129.22
1126.98
1124.8
1122.69
1120.66
1118.72
1116.87
1115.14
1113.53
1112.07
1110.78
1109.71
1108.85
1108.27
1107.99
1108.07
1108.55
1109.48
1110.91
1112.9
1115.47
1118.66
1122.48
1126.91
1131.88
1137.28
1142.94
1148.62
1154.06
1158.94
1162.96
1165.87
1167.49
1167.74
1166.62
1164.24
1160.47
1155.14
1149.05
1142.58
1135.88
1129.01
1122
1114.86
1107.57
1100.12
1092.49
1084.64
1076.52
1068.09
1059.28
1050.04
1040.31
1030.02
1019.14
1007.62
995.455
982.612
969.115
955.032
940.469
925.568
910.476
895.205
879.734
864.401
849.766
836.047
822.978
810.268
797.872
785.885
774.476
763.702
753.325
743.414
734.319
725.782
716.822
707.986
699.682
692.847
685.074
674.504
606.724
573.358
550.242
538.799
946.314
1159.54
1452.29
1385.85
1186.9
1147.25
1140.07
1138.05
1136.32
1134.11
1131.72
1129.38
1127.12
1124.94
1122.82
1120.78
1118.82
1116.96
1115.21
1113.59
1112.12
1110.81
1109.71
1108.83
1108.22
1107.91
1107.94
1108.37
1109.24
1110.6
1112.49
1114.96
1118.04
1121.72
1126
1130.82
1136.07
1141.59
1147.17
1152.54
1157.42
1161.5
1164.54
1166.36
1166.85
1166
1163.89
1160.55
1155.57
1149.73
1143.4
1136.79
1129.98
1123.01
1115.87
1108.57
1101.09
1093.39
1085.44
1077.2
1068.61
1059.6
1050.13
1040.13
1029.53
1018.31
1006.44
993.892
980.661
966.772
952.315
937.405
922.195
906.841
891.339
875.68
860.238
845.578
831.899
818.887
806.247
793.93
782.029
770.719
760.049
749.795
739.99
731.021
722.636
713.832
705.079
696.892
690.152
682.469
673.148
607.716
573.752
550.483
538.854
940.788
1147.7
1455.3
1474.89
1199.14
1148.93
1140.41
1138.1
1136.44
1134.3
1131.92
1129.56
1127.29
1125.08
1122.95
1120.9
1118.92
1117.04
1115.28
1113.63
1112.13
1110.8
1109.67
1108.75
1108.1
1107.74
1107.71
1108.07
1108.85
1110.12
1111.9
1114.24
1117.17
1120.69
1124.8
1129.43
1134.51
1139.88
1145.33
1150.64
1155.51
1159.67
1162.86
1164.89
1165.64
1165.1
1163.3
1160.37
1155.82
1150.26
1144.12
1137.62
1130.88
1123.94
1116.8
1109.48
1101.95
1094.17
1086.1
1077.71
1068.93
1059.7
1049.95
1039.64
1028.7
1017.1
1004.83
991.879
978.229
963.927
949.077
933.811
918.292
902.681
886.96
871.138
855.613
840.979
827.372
814.443
801.892
789.683
777.898
766.711
756.183
746.062
736.381
727.558
719.335
710.7
702.037
693.982
687.343
679.804
671.407
608.369
574.062
550.684
538.9
935.913
1201.6
1454.13
1470.56
1209
1151.96
1141
1138.17
1136.55
1134.5
1132.14
1129.76
1127.46
1125.24
1123.09
1121.02
1119.02
1117.12
1115.33
1113.66
1112.13
1110.76
1109.58
1108.62
1107.91
1107.48
1107.38
1107.65
1108.33
1109.47
1111.12
1113.31
1116.06
1119.39
1123.3
1127.73
1132.61
1137.8
1143.12
1148.34
1153.2
1157.43
1160.77
1163.04
1164.08
1163.86
1162.4
1159.82
1155.82
1150.61
1144.68
1138.32
1131.65
1124.75
1117.62
1110.26
1102.66
1094.78
1086.57
1077.99
1068.99
1059.49
1049.44
1038.77
1027.44
1015.43
1002.73
989.334
975.235
960.495
945.239
929.613
913.792
897.936
882.017
866.052
850.493
835.932
822.441
809.622
797.185
785.113
773.477
762.447
752.081
742.121
732.581
723.92
715.88
707.423
698.869
690.955
684.421
677.081
669.322
608.805
574.28
550.857
538.945
931.432
1160.72
1447.75
1470.22
1220.99
1155.58
1141.78
1138.29
1136.66
1134.71
1132.37
1129.98
1127.66
1125.42
1123.25
1121.15
1119.13
1117.2
1115.38
1113.67
1112.1
1110.68
1109.45
1108.43
1107.65
1107.15
1106.95
1107.12
1107.68
1108.68
1110.16
1112.17
1114.73
1117.84
1121.52
1125.73
1130.38
1135.36
1140.52
1145.64
1150.47
1154.76
1158.25
1160.75
1162.1
1162.23
1161.14
1158.9
1155.48
1150.67
1145.01
1138.82
1132.25
1125.39
1118.26
1110.86
1103.17
1095.16
1086.78
1077.98
1068.71
1058.91
1048.5
1037.43
1025.67
1013.2
1000.03
986.158
971.58
956.38
940.711
924.722
908.614
892.538
876.444
860.374
844.837
830.404
817.079
804.4
792.101
780.197
768.75
757.916
747.743
737.961
728.584
720.104
712.266
704
695.571
687.809
681.396
674.293
667.031
609.037
574.423
551
538.981
927.143
1139.19
1429.36
1468.74
1234.46
1159.91
1142.8
1138.48
1136.78
1134.92
1132.63
1130.22
1127.87
1125.61
1123.41
1121.29
1119.24
1117.28
1115.41
1113.66
1112.05
1110.58
1109.28
1108.19
1107.33
1106.74
1106.44
1106.48
1106.9
1107.74
1109.04
1110.85
1113.18
1116.05
1119.48
1123.42
1127.82
1132.57
1137.53
1142.51
1147.29
1151.62
1155.25
1157.98
1159.63
1160.12
1159.43
1157.58
1154.67
1150.35
1145.04
1139.05
1132.6
1125.78
1118.64
1111.19
1103.39
1095.23
1086.64
1077.59
1068.01
1057.84
1047.02
1035.5
1023.26
1010.29
996.619
982.232
967.147
951.471
935.382
919.047
902.673
886.413
870.177
854.043
838.594
824.367
811.247
798.74
786.617
774.917
763.7
753.098
743.159
733.574
724.379
716.108
708.492
700.434
692.148
684.544
678.262
671.404
664.739
609.079
574.511
551.104
539.012
922.485
1174.73
1383.79
1466.47
1250.17
1165.01
1144.09
1138.76
1136.91
1135.14
1132.89
1130.48
1128.1
1125.81
1123.58
1121.43
1119.35
1117.35
1115.44
1113.65
1111.98
1110.45
1109.08
1107.91
1106.96
1106.26
1105.84
1105.74
1106
1106.66
1107.76
1109.34
1111.43
1114.03
1117.17
1120.82
1124.93
1129.41
1134.14
1138.95
1143.64
1147.97
1151.71
1154.65
1156.6
1157.46
1157.17
1155.74
1153.23
1149.53
1144.63
1138.9
1132.59
1125.84
1118.69
1111.16
1103.23
1094.87
1086.04
1076.68
1066.74
1056.16
1044.88
1032.85
1020.07
1006.56
992.345
977.411
961.793
945.632
929.132
912.474
895.881
879.475
863.144
847.005
831.72
817.772
804.916
792.612
780.7
769.252
758.309
747.987
738.308
728.952
719.959
711.923
704.557
696.716
688.592
681.161
675.02
668.403
662.362
608.809
574.533
551.174
539.041
916.765
1395.84
1464.53
1468.87
1267.97
1171.07
1145.68
1139.13
1137.06
1135.36
1133.17
1130.75
1128.35
1126.02
1123.77
1121.58
1119.46
1117.42
1115.47
1113.62
1111.89
1110.29
1108.85
1107.59
1106.53
1105.72
1105.16
1104.91
1105
1105.46
1106.34
1107.67
1109.48
1111.8
1114.62
1117.94
1121.72
1125.9
1130.36
1134.95
1139.49
1143.78
1147.59
1150.7
1152.93
1154.14
1154.26
1153.25
1151.16
1148.03
1143.63
1138.22
1132.1
1125.42
1118.26
1110.64
1102.55
1093.96
1084.83
1075.11
1064.75
1053.7
1041.89
1029.3
1015.94
1001.84
987.04
971.525
955.353
938.709
921.821
904.884
888.132
871.643
855.262
839.186
824.163
810.583
798.04
785.979
774.317
763.172
752.555
742.557
733.185
724.078
715.313
707.545
700.456
692.856
684.902
677.658
671.671
665.294
659.836
608.376
574.492
551.235
539.06
915.117
1165.26
1446.58
1469.65
1291.74
1178.54
1147.62
1139.64
1137.24
1135.58
1133.47
1131.05
1128.62
1126.26
1123.97
1121.74
1119.58
1117.5
1115.49
1113.59
1111.79
1110.12
1108.59
1107.23
1106.07
1105.12
1104.42
1104
1103.9
1104.15
1104.79
1105.85
1107.37
1109.36
1111.83
1114.79
1118.21
1122.03
1126.16
1130.48
1134.83
1139.01
1142.83
1146.06
1148.52
1150.06
1150.56
1149.99
1148.33
1145.63
1141.83
1136.82
1130.93
1124.35
1117.17
1109.45
1101.17
1092.3
1082.82
1072.68
1061.84
1050.25
1037.85
1024.63
1010.63
995.904
980.484
964.361
947.631
930.524
913.297
896.154
879.325
862.814
846.436
830.516
815.871
802.75
790.574
778.8
767.44
756.653
746.414
736.793
727.767
718.941
710.437
702.972
696.188
688.842
681.077
674.034
668.215
662.083
657.02
607.797
574.401
551.245
539.08
911.679
1140.07
1444.97
1469.22
1322.5
1187.86
1149.95
1140.29
1137.47
1135.82
1133.77
1131.37
1128.91
1126.51
1124.18
1121.92
1119.72
1117.58
1115.52
1113.56
1111.69
1109.94
1108.32
1106.85
1105.56
1104.48
1103.62
1103.03
1102.73
1102.75
1103.13
1103.9
1105.1
1106.74
1108.84
1111.4
1114.41
1117.82
1121.57
1125.55
1129.62
1133.63
1137.37
1140.65
1143.27
1145.08
1145.94
1145.77
1144.53
1142.24
1138.97
1134.44
1128.84
1122.39
1115.21
1107.35
1098.84
1089.65
1079.76
1069.13
1057.74
1045.53
1032.46
1018.55
1003.87
988.491
972.423
955.674
938.399
920.886
903.398
886.151
869.344
852.877
836.559
820.908
806.784
794.219
782.471
771.031
760.038
749.668
739.863
730.668
722.036
713.528
705.319
698.198
691.756
684.679
677.117
670.288
664.654
658.765
654.138
607.049
574.252
551.251
539.09
908.358
1130.08
1445.74
1468.73
1365.01
1199.77
1152.7
1141.09
1137.76
1136.07
1134.1
1131.72
1129.23
1126.79
1124.43
1122.12
1119.87
1117.68
1115.57
1113.53
1111.59
1109.75
1108.03
1106.46
1105.04
1103.8
1102.79
1102
1101.48
1101.26
1101.36
1101.83
1102.68
1103.95
1105.64
1107.77
1110.32
1113.28
1116.58
1120.15
1123.87
1127.6
1131.17
1134.39
1137.09
1139.08
1140.22
1140.41
1139.56
1137.66
1134.71
1130.71
1125.49
1119.2
1112.02
1104.03
1095.24
1085.67
1075.3
1064.12
1052.1
1039.2
1025.4
1010.74
995.34
979.276
962.542
945.176
927.411
909.579
891.958
874.744
858.062
841.679
825.497
810.283
796.85
784.938
773.668
762.63
752.08
742.195
732.873
724.166
715.971
707.82
699.954
693.226
687.157
680.366
673.025
666.418
660.983
655.346
651.064
606.178
574.049
551.223
539.101
904.775
1206.64
1448.21
1466.92
1421.8
1214.47
1155.89
1142.09
1138.13
1136.34
1134.44
1132.09
1129.58
1127.1
1124.7
1122.35
1120.05
1117.81
1115.63
1113.52
1111.5
1109.57
1107.75
1106.05
1104.5
1103.11
1101.91
1100.93
1100.18
1099.7
1099.51
1099.65
1100.14
1101.01
1102.26
1103.92
1105.98
1108.42
1111.22
1114.29
1117.56
1120.91
1124.18
1127.23
1129.86
1131.92
1133.23
1133.67
1133.14
1131.57
1128.94
1125.24
1120.41
1114.35
1107.18
1099.03
1089.93
1079.91
1069.01
1057.2
1044.47
1030.8
1016.2
1000.76
984.626
967.871
950.478
932.544
914.393
896.399
878.809
861.774
845.302
829.032
813.102
798.566
786.021
774.848
764.108
753.555
743.536
734.21
725.423
717.254
709.558
701.806
694.34
688.059
682.394
675.898
668.791
662.427
657.202
651.821
647.877
605.134
573.815
551.173
539.107
1135.14
1427.47
1464.35
1469.99
1229.36
1159.88
1143.42
1138.6
1136.65
1134.81
1132.5
1129.97
1127.45
1125
1122.6
1120.25
1117.95
1115.71
1113.53
1111.42
1109.39
1107.46
1105.64
1103.95
1102.4
1101.01
1099.81
1098.83
1098.07
1097.58
1097.38
1097.49
1097.93
1098.72
1099.88
1101.4
1103.28
1105.49
1107.99
1110.7
1113.54
1116.39
1119.09
1121.5
1123.45
1124.77
1125.32
1124.97
1123.62
1121.2
1117.68
1113.05
1107.2
1100.07
1091.75
1082.3
1071.8
1060.28
1047.77
1034.27
1019.76
1004.32
988.088
971.243
953.821
935.813
917.421
899.067
881.114
863.754
847.043
830.814
814.687
799.241
785.715
774.248
763.866
753.719
743.758
734.38
725.68
717.489
709.921
702.784
695.491
688.479
682.702
677.465
671.272
664.411
658.31
653.309
648.189
644.492
603.992
573.523
551.106
539.11
1354.19
1459.34
1468.2
1241.8
1165.3
1145.22
1139.2
1136.98
1135.2
1132.94
1130.4
1127.84
1125.33
1122.89
1120.48
1118.12
1115.81
1113.55
1111.36
1109.23
1107.18
1105.23
1103.39
1101.67
1100.09
1098.67
1097.43
1096.4
1095.59
1095.03
1094.74
1094.73
1095.03
1095.66
1096.6
1097.86
1099.43
1101.26
1103.31
1105.51
1107.76
1109.94
1111.92
1113.54
1114.64
1115.07
1114.69
1113.37
1111.01
1107.52
1102.86
1097
1089.87
1081.38
1071.54
1060.51
1048.34
1035.08
1020.75
1005.37
989.088
972.102
954.603
936.581
918.066
899.416
881.12
863.47
846.533
830.242
814.259
798.389
783.843
771.73
761.463
751.885
742.425
733.2
724.587
716.586
709.046
702.154
695.645
688.878
682.392
677.168
672.376
666.484
659.879
654.061
649.308
644.453
641.002
602.73
573.181
551.011
539.111
1257.32
1171.74
1147.35
1139.94
1137.36
1135.6
1133.41
1130.87
1128.26
1125.7
1123.2
1120.74
1118.32
1115.94
1113.6
1111.31
1109.08
1106.92
1104.83
1102.83
1100.94
1099.16
1097.51
1096.02
1094.69
1093.55
1092.62
1091.9
1091.43
1091.22
1091.27
1091.59
1092.19
1093.04
1094.12
1095.4
1096.81
1098.28
1099.73
1101.03
1102.05
1102.64
1102.65
1101.94
1100.35
1097.76
1094.07
1089.17
1083.02
1075.56
1066.81
1056.56
1045
1032.14
1018.12
1002.94
986.704
969.649
952.021
933.987
915.494
896.68
878.08
860.186
843.111
826.766
810.935
795.229
779.954
766.954
756.615
747.545
738.782
730.167
721.856
714.136
706.906
700.085
693.958
688.159
681.982
676.088
671.463
667.119
661.525
655.194
649.677
645.191
640.614
637.428
601.355
572.78
550.903
539.109
1179.62
1149.88
1140.85
1137.81
1136.02
1133.9
1131.37
1128.73
1126.12
1123.56
1121.04
1118.55
1116.09
1113.67
1111.29
1108.96
1106.67
1104.44
1102.29
1100.21
1098.23
1096.35
1094.58
1092.95
1091.47
1090.14
1088.98
1088.03
1087.28
1086.73
1086.39
1086.26
1086.33
1086.57
1086.95
1087.43
1087.95
1088.43
1088.78
1088.87
1088.59
1087.79
1086.33
1084.06
1080.84
1076.54
1071.06
1064.3
1056.22
1046.77
1035.97
1023.84
1010.3
995.551
979.56
962.589
944.936
926.864
908.495
889.753
870.99
852.895
835.808
819.55
803.903
788.58
773.369
759.383
748.715
740.28
732.268
724.436
716.918
709.713
703.005
696.629
690.611
685.356
680.353
674.83
669.583
665.586
661.683
656.375
650.336
645.156
640.96
636.671
633.725
599.877
572.324
550.764
539.106
1152.92
1141.95
1138.34
1136.48
1134.43
1131.92
1129.24
1126.58
1123.96
1121.38
1118.83
1116.29
1113.78
1111.3
1108.85
1106.43
1104.06
1101.75
1099.49
1097.3
1095.17
1093.13
1091.17
1089.34
1087.59
1085.97
1084.52
1083.2
1082.01
1080.96
1080.05
1079.25
1078.54
1077.91
1077.3
1076.67
1075.94
1075.03
1073.85
1072.28
1070.2
1067.49
1064
1059.59
1054.15
1047.56
1039.74
1030.61
1020.17
1008.38
995.342
981.122
965.695
949.029
931.568
913.602
895.4
877
858.385
840.232
823.239
807.359
792.093
777.261
762.65
748.556
736.937
729.201
722.405
715.356
708.791
702.686
696.758
691.178
685.75
680.654
676.398
672.269
667.431
662.865
659.518
656.055
651.035
645.313
640.499
636.621
632.628
629.9
598.283
571.818
550.606
539.1
1084.85
1082.78
1080.79
1078.86
1076.98
1075.17
1073.39
1071.64
1069.88
1068.09
1066.23
1064.24
1062.06
1059.59
1056.76
1053.47
1049.62
1045.09
1039.75
1033.5
1026.24
1017.87
1008.34
997.607
985.661
972.526
958.309
943.029
926.703
909.573
891.965
874.088
856.206
838.214
820.337
803.613
788.362
773.981
759.872
746.159
732.843
721.033
713.071
708.168
702.469
696.662
691.91
687.493
682.982
678.693
674.35
670.311
667.165
663.942
659.781
655.894
653.229
650.258
645.566
640.179
635.743
632.191
628.503
625.97
596.611
571.276
550.425
539.097
1076.55
1073.96
1071.31
1068.64
1065.91
1063.08
1060.15
1057.07
1053.79
1050.23
1046.34
1042.03
1037.21
1031.8
1025.7
1018.81
1011.04
1002.31
992.545
981.713
969.792
956.793
942.754
927.766
911.97
895.339
877.996
860.287
842.568
825.116
808.03
790.98
774.728
760.401
747.357
734.666
722.096
710.184
699.281
691.454
1067.79
1064.28
1060.64
1056.83
1052.82
1048.6
1044.08
1039.19
1033.88
1028.07
1021.65
1014.57
1006.75
998.079
988.478
977.892
966.278
953.612
939.894
925.166
909.505
892.991
875.808
858.089
839.78
821.237
802.907
785.104
768.025
751.596
735.645
721.793
710.422
699.574
688.823
678.572
669.505
662.619
1050.46
1045.46
1040.14
1034.5
1028.36
1021.74
1014.53
1006.64
997.986
988.548
978.223
966.933
954.636
941.322
926.975
911.629
895.33
878.167
860.265
841.737
822.846
803.54
783.9
764.496
745.704
727.683
710.587
694.227
679.005
666.846
656.923
647.091
638.24
630.965
625.542
1034.26
1027.47
1020.16
1012.25
1003.78
994.576
984.603
973.832
962.26
949.778
936.371
922.076
906.897
890.87
874.074
856.589
838.532
820.028
801.17
782.258
762.891
743.588
724.863
706.819
689.38
672.603
656.099
1007.49
998.258
988.347
977.644
966.204
953.987
941.007
927.119
912.456
897.03
880.85
864
846.578
828.672
810.39
791.851
773.164
754.61
735.505
717.059
699.375
682.323
665.854
650.055
974.603
962.765
950.204
936.894
922.765
907.838
892.334
876.129
859.3
841.972
824.238
806.172
787.887
769.502
751.133
732.97
906.971
891.426
875.286
858.498
841.288
823.717
805.85
787.776
769.614
751.477
733.475
715.763
860.562
843.461
826.063
808.358
790.447
772.443
754.46
736.606
718.991
701.723
721.36
706.58
689.592
713.38
711.979
707.941
695.407
679.22
667.581
662.24
645.658
643.388
645.365
644.319
639.346
632.022
623.657
615.456
608.056
601.234
595.775
592.097
585.506
585.757
586.509
601.473
655.548
679.465
695.114
695.327
688.437
678.556
663.741
657.007
651.477
640.328
641.315
644.099
645.748
642.565
636.135
627.973
619.358
611.221
603.964
599.365
596.681
583.062
584.456
585.695
586.655
587.925
588.426
589.576
595.922
634.548
657.691
669.518
670.719
667.677
661.258
647.546
641.597
638.336
636.416
641.165
647.742
650.243
648.188
642.01
633.636
624.206
615.056
607.382
602.368
599.32
579.135
580.44
581.903
583.441
585.373
586.881
588.193
589.262
589.82
590.252
589.907
589.995
604.091
625.702
642.059
644.773
644.451
641.989
629.134
625.348
627.531
632.236
640.958
649.69
654.215
653.131
647.603
639.314
629.351
619.449
611.085
605.222
600.972
578.227
578.958
579.914
581.345
582.722
584.239
585.848
587.357
588.887
590.262
591.405
592.354
593.04
592.635
591.138
593.296
604.983
612.232
615.666
618.626
620.878
619.367
617.297
619.772
628.309
640.188
651.015
657.293
657.653
653.207
644.953
634.553
624.037
614.663
607.378
601.568
579.475
579.73
580.446
581.215
582.205
583.344
584.729
586.275
587.921
589.628
591.268
592.775
594.102
595.201
596.127
596.188
595.177
594.563
595.805
600.171
603.423
607.955
612.964
616.381
615.337
617.8
626.05
639.056
651.614
659.458
661.386
657.832
649.902
639.437
628.405
617.951
609.11
601.936
582.016
581.628
581.78
582.048
582.522
583.282
584.279
585.519
586.952
588.555
590.275
592.044
593.806
595.483
597.036
598.459
599.746
600.613
600.521
599.587
599.188
600.65
602.78
607.916
614.849
618.998
618.297
619.59
626.936
638.76
651.956
660.858
663.91
661.15
653.872
643.86
632.483
621.08
610.903
602.672
594.906
589.772
586.843
585.198
584.466
584.058
583.974
584.215
584.736
585.51
586.532
587.792
589.274
590.942
592.75
594.647
596.573
598.47
600.319
602.115
603.863
605.5
606.35
606.206
606.542
606.098
607.457
612.884
620.877
625.855
625.117
624.2
630.359
640.523
652.778
661.874
665.391
663.328
656.887
647.442
636.073
624.194
613.132
603.973
634.668
623.267
613.163
604.564
597.858
592.628
589.551
587.817
586.825
586.367
586.296
586.529
587.041
587.829
588.88
590.188
591.732
593.481
595.398
597.439
599.564
601.729
603.932
606.178
608.486
610.779
612.689
613.888
614.708
614.606
616.074
621.649
629.244
633.884
632.679
630.127
634.872
644.071
654.658
662.976
666.497
664.828
659.007
650.037
639.091
627.329
615.865
605.633
677.314
663.182
649.86
637.724
626.398
616.322
607.708
600.699
595.379
592.16
590.333
589.313
588.814
588.711
588.932
589.452
590.262
591.351
592.711
594.327
596.171
598.216
600.431
602.792
605.274
607.891
610.655
613.584
616.561
619.355
621.617
623.441
624.148
625.839
631.74
638.854
642.671
640.86
636.583
639.767
648.151
657.141
664.167
667.177
665.584
660.189
651.91
641.648
630.424
619.008
606.723
709.616
694.422
680.084
666.125
652.938
640.604
629.358
619.325
610.708
603.699
598.294
594.918
592.991
591.898
591.356
591.23
591.447
591.977
592.815
593.947
595.369
597.067
599.021
601.212
603.629
606.263
609.11
612.202
615.551
619.152
622.874
626.464
629.539
632.241
633.202
635.206
641.594
648.505
651.714
649.412
643.886
645.176
651.923
659.342
664.937
667.081
665.315
660.36
652.904
643.625
633.359
622.491
607.683
1016.58
1013.53
1009.78
1005.95
1002.1
998.221
994.364
990.492
986.649
982.81
979.002
975.213
971.46
967.736
964.053
960.407
956.806
953.246
949.73
946.253
942.815
939.406
936.019
932.643
929.262
925.858
922.408
918.887
915.263
911.5
907.558
903.386
898.93
893.283
884.967
874.818
863.236
850.462
836.66
822.032
806.752
791.02
775.032
758.959
742.966
727.198
712.103
697.117
682.62
668.849
655.821
643.669
632.505
622.511
613.887
606.816
601.333
597.788
595.756
594.595
594.011
593.863
594.077
594.622
595.493
596.675
598.166
599.957
602.034
604.393
607.039
609.983
613.246
616.873
620.876
625.211
629.695
634.033
637.845
641.073
642.525
645.005
651.939
658.3
660.863
658.135
651.702
651.251
655.612
660.88
664.727
665.726
663.649
659.142
652.692
644.728
635.861
625.964
608.745
1016.54
1013.51
1009.77
1005.95
1002.11
998.228
994.373
990.504
986.663
982.827
979.021
975.234
971.482
967.759
964.077
960.432
956.83
953.27
949.753
946.275
942.834
939.422
936.033
932.653
929.269
925.86
922.407
918.883
915.258
911.495
907.555
903.391
898.946
893.306
885.119
875.092
863.651
851.032
837.416
822.98
807.922
792.414
776.667
760.843
745.09
729.563
714.306
699.554
685.352
671.759
658.891
646.848
635.768
625.815
617.186
610.065
604.507
600.786
598.643
597.41
596.782
596.616
596.829
597.393
598.302
599.54
601.109
603.003
605.218
607.765
610.668
613.961
617.688
621.91
626.635
631.786
637.079
642.158
646.606
650.447
652.259
655.195
662.706
668.631
670.552
667.343
660.195
657.999
659.277
661.55
663.097
662.64
660.103
656.064
650.796
644.476
637.532
627.996
609.492
1016.51
1013.5
1009.79
1005.97
1002.14
998.265
994.415
990.551
986.713
982.881
979.078
975.294
971.544
967.824
964.143
960.498
956.897
953.336
949.817
946.336
942.89
939.472
936.075
932.686
929.291
925.871
922.404
918.865
915.225
911.449
907.496
903.321
898.871
893.171
884.963
874.975
863.624
851.133
837.681
823.445
808.615
793.36
777.88
762.324
746.856
731.598
716.686
702.189
688.187
674.788
662.075
650.162
639.162
629.256
620.621
613.449
607.814
603.92
601.66
600.352
599.681
599.497
599.714
600.301
601.251
602.551
604.204
606.211
608.577
611.332
614.521
618.2
622.441
627.319
632.838
638.891
645.096
650.99
656.136
660.549
662.667
666.104
674.223
679.657
681.023
677.193
669.125
664.751
662.331
660.973
659.679
657.409
654.23
650.639
646.73
642.41
638.072
629.107
610.044
1016.47
1013.49
1009.79
1005.99
1002.16
998.293
994.447
990.587
986.753
982.924
979.123
975.342
971.595
967.876
964.195
960.552
956.95
953.387
949.866
946.381
942.931
939.508
936.103
932.706
929.301
925.87
922.392
918.841
915.19
911.403
907.441
903.261
898.812
893.067
884.875
874.963
863.716
851.374
838.104
824.083
809.485
794.496
779.287
764.012
748.827
733.849
719.179
704.925
691.15
677.947
665.401
653.613
642.702
632.838
624.2
616.98
611.264
607.199
604.814
603.429
602.715
602.513
602.737
603.349
604.346
605.713
607.456
609.586
612.117
615.1
618.601
622.703
627.51
633.104
639.495
646.541
653.768
660.587
666.537
671.59
674.173
678.201
686.915
691.644
692.401
687.64
678.061
670.579
663.933
658.472
653.91
649.501
645.535
642.412
640.055
638.146
636.604
629.279
610.297
1016.42
1013.47
1009.8
1006
1002.18
998.321
994.479
990.623
986.793
982.966
979.169
975.39
971.644
967.927
964.247
960.603
957.001
953.437
949.912
946.424
942.969
939.539
936.127
932.721
929.306
925.864
922.375
918.813
915.149
911.351
907.382
903.196
898.746
892.966
884.789
874.953
863.823
851.632
838.555
824.756
810.407
795.682
780.754
765.773
750.877
736.186
721.79
707.788
694.246
681.245
668.861
657.202
646.387
636.566
627.929
620.659
614.865
610.636
608.116
606.651
605.892
605.673
605.903
606.544
607.592
609.029
610.87
613.134
615.844
619.074
622.914
627.477
632.896
639.272
646.611
654.743
663.097
670.979
677.867
683.703
686.869
691.57
700.797
704.646
704.76
698.539
686.654
674.835