/*--------------------------------*- C++ -*----------------------------------*\
  =========                 |
  \\      /  F ield         | OpenFOAM: The Open Source CFD Toolbox
   \\    /   O peration     | Website:  https://openfoam.org
    \\  /    A nd           | Version:  9
     \\/     M anipulation  |
\*---------------------------------------------------------------------------*/
FoamFile
{
    format      ascii;
    class       volVectorField;
    location    "1500";
    object      U;
}
// * * * * * * * * * * * * * * * * * * * * * * * * * * * * * * * * * * * * * //

dimensions      [0 1 -1 0 0 0 0];

internalField   nonuniform List<vector> 
13538
(
(1.15174 -2.6476e-05 9.39488e-21)
(1.15185 -6.30249e-05 -2.0413e-20)
(1.1519 -0.000104965 -1.00368e-20)
(1.15195 -0.000141941 2.23452e-20)
(1.15198 -0.000179976 -1.20853e-20)
(1.152 -0.000218033 -8.0827e-22)
(1.15202 -0.000256462 -1.30432e-20)
(1.15204 -0.000295325 0)
(1.15206 -0.000334738 -4.89161e-22)
(1.15207 -0.000374779 5.1847e-22)
(1.15208 -0.000415593 1.77948e-20)
(1.15209 -0.000457297 -5.94114e-22)
(1.1521 -0.000500048 -9.28651e-21)
(1.15211 -0.000543994 -1.09169e-20)
(1.15212 -0.000589282 -3.583e-22)
(1.15213 -0.000636081 6.5887e-21)
(1.15214 -0.000684555 -6.86038e-21)
(1.15215 -0.000734872 0)
(1.15216 -0.000787223 -7.4522e-21)
(1.15218 -0.000841823 3.84276e-21)
(1.1522 -0.000898895 -1.12004e-22)
(1.15222 -0.000958723 0)
(1.15225 -0.00102161 -9.29787e-21)
(1.15228 -0.00108796 4.90289e-21)
(1.15232 -0.00115819 -2.37187e-21)
(1.15236 -0.00123287 -2.41719e-21)
(1.15241 -0.00131262 0)
(1.15247 -0.00139822 -2.55282e-21)
(1.15254 -0.00149055 -2.16994e-21)
(1.15263 -0.00159069 -2.11371e-21)
(1.15273 -0.00169988 -1.20323e-23)
(1.15284 -0.00181955 -1.12751e-21)
(1.15297 -0.00195137 5.68978e-22)
(1.15312 -0.00209725 -4.44085e-22)
(1.15329 -0.00225934 0)
(1.15348 -0.00244019 -2.76855e-22)
(1.1537 -0.00264253 -4.82493e-23)
(1.15394 -0.00286959 1.14144e-21)
(1.15421 -0.00312491 -2.95862e-21)
(1.15452 -0.00341249 -4.00856e-21)
(1.15485 -0.00373679 -3.04141e-21)
(1.15522 -0.00410284 -2.31767e-22)
(1.15563 -0.00451589 -4.48391e-21)
(1.15608 -0.00498207 3.73991e-22)
(1.15657 -0.00550796 -2.14583e-22)
(1.1571 -0.0061007 -4.62669e-21)
(1.15767 -0.00676694 -4.93698e-21)
(1.15828 -0.00751523 1.35316e-20)
(1.15894 -0.00835458 3.66417e-21)
(1.15963 -0.00929296 -4.9725e-21)
(1.16036 -0.0103388 5.65135e-21)
(1.16113 -0.0115009 5.85354e-22)
(1.16194 -0.0127885 7.50836e-21)
(1.16277 -0.0142098 2.35909e-23)
(1.16363 -0.0157733 -3.04484e-22)
(1.16451 -0.0174863 -5.40557e-21)
(1.16541 -0.0193562 4.00052e-22)
(1.16632 -0.0213891 -7.86489e-21)
(1.16725 -0.0235914 8.10994e-21)
(1.16817 -0.0259676 5.63853e-22)
(1.1691 -0.0285223 3.25223e-22)
(1.17002 -0.0312589 -6.24843e-21)
(1.17094 -0.03418 0)
(1.17186 -0.0372886 1.47721e-20)
(1.17277 -0.040585 7.80312e-21)
(1.17369 -0.0440717 8.52272e-22)
(1.1746 -0.0477477 0)
(1.17553 -0.0516148 -5.70485e-21)
(1.17647 -0.0556705 -1.23169e-20)
(1.17744 -0.0599174 0)
(1.17844 -0.0643504 -7.76206e-21)
(1.17951 -0.0689706 7.83444e-21)
(1.18064 -0.0737724 8.77406e-21)
(1.18187 -0.0787549 0)
(1.18322 -0.0839079 -5.93586e-21)
(1.18469 -0.0892258 -6.68635e-21)
(1.18634 -0.0946987 5.8101e-23)
(1.18818 -0.100306 -1.9246e-22)
(1.19024 -0.106037 -8.81707e-21)
(1.19255 -0.111851 -5.21101e-21)
(1.19515 -0.117748 1.17989e-20)
(1.19808 -0.123621 -6.92922e-21)
(1.20133 -0.129548 -7.89878e-21)
(1.20498 -0.135264 9.01156e-21)
(1.20899 -0.141036 9.85995e-21)
(1.21345 -0.146262 -5.87973e-21)
(1.21822 -0.151699 6.72503e-21)
(1.22358 -0.155972 0)
(1.22898 -0.160954 8.75069e-21)
(1.23523 -0.163671 -6.42773e-22)
(1.24091 -0.168307 7.0591e-21)
(1.24813 -0.168674 5.86748e-23)
(1.2533 -0.173606 -4.0572e-22)
(1.26133 -0.170416 -4.90376e-22)
(1.26398 -0.177097 0)
(1.2826 -0.168278 -1.98623e-20)
(1.31502 -0.185633 0)
(1.32419 -0.188397 -4.2861e-22)
(0.787108 -0.126117 7.59086e-22)
(1.15172 -2.44342e-05 2.04639e-20)
(1.15183 -5.99038e-05 -1.81759e-21)
(1.15189 -0.00010206 2.33166e-20)
(1.15193 -0.000139562 -2.41455e-20)
(1.15196 -0.000177439 -1.39169e-20)
(1.15198 -0.000215492 -1.1548e-20)
(1.15201 -0.000253782 -2.06807e-21)
(1.15202 -0.00029257 1.67855e-20)
(1.15204 -0.000331922 0)
(1.15205 -0.000371982 1.70026e-20)
(1.15206 -0.000412869 2.18694e-22)
(1.15207 -0.000454736 1.20004e-21)
(1.15208 -0.00049773 9.45651e-21)
(1.15209 -0.000542018 2.11225e-20)
(1.1521 -0.000587772 -1.17779e-20)
(1.15211 -0.000635162 -1.86768e-20)
(1.15211 -0.000684376 -6.6895e-21)
(1.15213 -0.000735623 7.99487e-21)
(1.15214 -0.000789114 1.3974e-20)
(1.15215 -0.000845095 0)
(1.15217 -0.000903834 1.30878e-20)
(1.15219 -0.000965646 -5.50059e-22)
(1.15221 -0.00103089 4.51412e-21)
(1.15224 -0.00109999 0)
(1.15228 -0.00117345 0)
(1.15232 -0.00125185 5.50804e-21)
(1.15237 -0.00133587 -1.62068e-23)
(1.15243 -0.00142634 -3.31665e-22)
(1.15249 -0.0015242 0)
(1.15257 -0.00163056 0)
(1.15267 -0.0017467 -1.28665e-22)
(1.15277 -0.00187408 2.08935e-21)
(1.15289 -0.00201443 -1.15285e-22)
(1.15303 -0.00216965 4.378e-22)
(1.15319 -0.00234197 3.14617e-22)
(1.15337 -0.00253386 -4.02011e-22)
(1.15357 -0.00274814 -6.52275e-22)
(1.1538 -0.00298796 1.45269e-21)
(1.15405 -0.00325685 1.39025e-21)
(1.15434 -0.00355877 1.45927e-21)
(1.15465 -0.00389805 2.682e-22)
(1.155 -0.0042796 0)
(1.15538 -0.00470864 4.39496e-21)
(1.15579 -0.00519112 4.94307e-21)
(1.15624 -0.00573324 0)
(1.15673 -0.00634176 4.26183e-21)
(1.15726 -0.00702369 9.86196e-21)
(1.15783 -0.00778711 -6.26039e-21)
(1.15843 -0.00863982 -4.73981e-22)
(1.15907 -0.00959019 -6.99489e-21)
(1.15974 -0.0106463 -1.53548e-20)
(1.16045 -0.0118171 6.91803e-21)
(1.16119 -0.0131106 -7.97757e-21)
(1.16195 -0.0145352 0)
(1.16273 -0.0160993 -9.25881e-21)
(1.16354 -0.0178097 1.2258e-20)
(1.16436 -0.0196744 -7.18868e-22)
(1.16519 -0.0216994 -6.42865e-21)
(1.16602 -0.0238909 -1.52967e-20)
(1.16686 -0.0262539 9.04817e-21)
(1.1677 -0.0287936 6.22109e-22)
(1.16853 -0.0315132 3.56981e-23)
(1.16936 -0.034417 1.07411e-20)
(1.17019 -0.0375074 -2.59861e-22)
(1.17101 -0.0407859 -7.85689e-21)
(1.17182 -0.0442561 1.61323e-20)
(1.17264 -0.0479176 -9.32809e-21)
(1.17347 -0.0517734 1.02778e-20)
(1.17432 -0.0558212 6.27991e-21)
(1.17519 -0.0600653 -7.78746e-22)
(1.1761 -0.0645018 4.20648e-22)
(1.17707 -0.0691335 -7.83659e-22)
(1.17812 -0.0739545 -8.9128e-21)
(1.17925 -0.0789666 -3.04801e-22)
(1.1805 -0.0841604 6.6304e-22)
(1.18189 -0.0895318 -6.01355e-21)
(1.18346 -0.0950717 2.16829e-22)
(1.18522 -0.100762 -2.28523e-22)
(1.18721 -0.106593 8.9302e-21)
(1.18947 -0.112522 -9.22841e-21)
(1.19204 -0.118558 -5.95189e-21)
(1.19494 -0.124586 1.04734e-22)
(1.1982 -0.130694 -1.10219e-22)
(1.20188 -0.136595 0)
(1.20595 -0.142602 -4.7936e-22)
(1.21051 -0.148024 0)
(1.21542 -0.153759 1.26639e-20)
(1.22095 -0.158182 7.28298e-21)
(1.22655 -0.163554 0)
(1.23308 -0.166282 -3.1803e-22)
(1.23899 -0.171455 3.34347e-22)
(1.24659 -0.171525 -1.24848e-20)
(1.25196 -0.177278 1.48073e-20)
(1.26072 -0.173224 -4.8744e-22)
(1.26311 -0.180994 -1.45852e-22)
(1.27957 -0.170163 1.00563e-20)
(1.30608 -0.189297 0)
(1.33442 -0.195067 0)
(0.819923 -0.136645 -2.89435e-21)
(1.15171 -2.34393e-05 5.42643e-22)
(1.15181 -5.86464e-05 1.77447e-20)
(1.15187 -0.000100695 -1.89102e-20)
(1.15191 -0.000138647 2.91278e-21)
(1.15194 -0.000176561 9.12591e-21)
(1.15197 -0.000214748 1.3229e-21)
(1.15199 -0.000253157 1.56034e-20)
(1.152 -0.000292088 -3.35691e-21)
(1.15202 -0.000331626 1.8113e-20)
(1.15203 -0.000371923 -1.88924e-20)
(1.15204 -0.000413103 -8.95357e-21)
(1.15205 -0.000455324 0)
(1.15206 -0.000498739 -1.04627e-20)
(1.15206 -0.000543527 -9.50674e-21)
(1.15207 -0.000589864 2.20798e-20)
(1.15208 -0.000637943 1.39659e-20)
(1.15209 -0.000687967 -8.62972e-21)
(1.1521 -0.00074016 -7.0222e-21)
(1.15211 -0.000794763 2.17125e-22)
(1.15212 -0.000852049 -1.00155e-21)
(1.15214 -0.000912318 -8.34874e-21)
(1.15215 -0.00097592 8.62606e-24)
(1.15218 -0.00104325 1.17903e-21)
(1.1522 -0.00111477 -5.60516e-21)
(1.15224 -0.00119102 -3.92924e-21)
(1.15227 -0.00127263 -1.05193e-20)
(1.15232 -0.00136033 4.8143e-21)
(1.15237 -0.00145498 0)
(1.15243 -0.00155757 3.21085e-22)
(1.15251 -0.00166923 -3.4036e-22)
(1.15259 -0.0017913 2.86459e-22)
(1.15269 -0.00192529 2.10075e-21)
(1.1528 -0.00207292 0)
(1.15293 -0.00223616 7.07439e-23)
(1.15308 -0.00241722 -3.85465e-22)
(1.15325 -0.00261863 -2.15838e-22)
(1.15344 -0.00284318 4.80464e-22)
(1.15365 -0.00309404 -1.59846e-21)
(1.15389 -0.0033747 4.82375e-22)
(1.15415 -0.00368909 2.24749e-21)
(1.15444 -0.00404152 0)
(1.15476 -0.00443674 3.82581e-22)
(1.15511 -0.00487994 -4.05485e-22)
(1.1555 -0.00537687 -4.87896e-21)
(1.15592 -0.00593361 -7.81529e-22)
(1.15637 -0.00655673 8.28457e-22)
(1.15685 -0.00725303 -4.61372e-21)
(1.15737 -0.00803017 7.05102e-22)
(1.15793 -0.00889582 -7.47334e-22)
(1.15851 -0.00985801 8.30972e-22)
(1.15913 -0.0109246 9.70188e-22)
(1.15978 -0.0121042 6.8625e-22)
(1.16045 -0.0134046 1.07898e-20)
(1.16114 -0.0148339 -6.67163e-21)
(1.16185 -0.0164003 9.6132e-21)
(1.16258 -0.0181108 -1.12079e-21)
(1.16332 -0.019973 0)
(1.16407 -0.0219931 1.77396e-20)
(1.16482 -0.0241774 7.17884e-21)
(1.16557 -0.0265316 0)
(1.16632 -0.0290603 0)
(1.16706 -0.0317685 -1.0319e-20)
(1.1678 -0.0346594 -1.07168e-20)
(1.16853 -0.0377377 -6.34894e-21)
(1.16925 -0.0410048 1.418e-20)
(1.16997 -0.0444653 -8.69476e-21)
(1.1707 -0.0481195 1.53024e-20)
(1.17143 -0.0519721 -7.90408e-21)
(1.17218 -0.0560218 -1.00903e-20)
(1.17295 -0.0602734 -7.16373e-22)
(1.17377 -0.0647241 7.60223e-22)
(1.17464 -0.0693784 -8.23496e-21)
(1.17558 -0.0742319 4.45289e-22)
(1.17662 -0.0792858 -7.08304e-21)
(1.17777 -0.0845357 -9.7557e-21)
(1.17907 -0.0899738 5.74419e-21)
(1.18054 -0.095598 -1.17028e-20)
(1.18222 -0.101387 6.65801e-21)
(1.18414 -0.107335 -7.61027e-21)
(1.18633 -0.113399 1.0124e-20)
(1.18885 -0.119588 -1.06944e-20)
(1.19171 -0.125787 -3.97013e-22)
(1.19496 -0.132088 -1.30669e-20)
(1.19865 -0.138188 0)
(1.20278 -0.14443 -9.91822e-21)
(1.20742 -0.150052 3.23445e-22)
(1.21245 -0.156073 -2.50989e-20)
(1.21814 -0.160648 6.96701e-21)
(1.22395 -0.166376 -8.37466e-21)
(1.23074 -0.16911 -9.47577e-21)
(1.23688 -0.174767 -1.0944e-20)
(1.24487 -0.174536 2.5024e-20)
(1.25042 -0.181012 -1.45275e-20)
(1.25984 -0.176191 1.59336e-20)
(1.2623 -0.185108 7.23604e-23)
(1.27872 -0.17288 -7.63293e-23)
(1.2998 -0.192435 -7.23455e-22)
(1.33763 -0.19846 -1.13564e-20)
(0.838079 -0.143507 2.14041e-20)
(1.15169 -2.23507e-05 1.99379e-20)
(1.15179 -5.72219e-05 0)
(1.15185 -9.88487e-05 2.77304e-21)
(1.15189 -0.000137054 -2.94045e-21)
(1.15192 -0.000174931 -2.53044e-20)
(1.15195 -0.000213128 4.00712e-20)
(1.15197 -0.000251571 0)
(1.15198 -0.00029055 -1.30285e-20)
(1.152 -0.000330186 -2.19606e-20)
(1.15201 -0.000370629 4.28231e-21)
(1.15202 -0.000412011 1.85617e-20)
(1.15203 -0.0004545 1.73665e-20)
(1.15203 -0.000498251 3.66385e-21)
(1.15204 -0.000543448 -1.27015e-20)
(1.15205 -0.000590284 -2.53537e-20)
(1.15205 -0.000638964 1.58607e-21)
(1.15206 -0.00068971 1.50955e-20)
(1.15207 -0.000742765 -1.80319e-21)
(1.15208 -0.000798393 -7.58054e-21)
(1.15209 -0.000856891 -1.01998e-21)
(1.1521 -0.000918591 1.08122e-21)
(1.15212 -0.000983873 0)
(1.15214 -0.00105317 0)
(1.15216 -0.00112697 4.93731e-21)
(1.15219 -0.00120586 5.13523e-21)
(1.15223 -0.00129051 -9.15692e-22)
(1.15227 -0.00138168 -5.40257e-21)
(1.15232 -0.00148027 -5.10403e-21)
(1.15237 -0.0015873 5.18646e-21)
(1.15244 -0.00170396 -5.76812e-21)
(1.15252 -0.0018316 1.02426e-21)
(1.15261 -0.00197176 -3.00126e-21)
(1.15272 -0.0021262 5.67418e-23)
(1.15284 -0.00229691 2.66029e-22)
(1.15297 -0.00248611 -1.62221e-21)
(1.15313 -0.00269632 -7.99335e-22)
(1.1533 -0.00293035 2.3682e-22)
(1.1535 -0.00319135 4.95787e-23)
(1.15372 -0.00348278 1.31492e-21)
(1.15396 -0.00380853 -2.75324e-21)
(1.15423 -0.00417282 0)
(1.15452 -0.00458036 -4.07964e-21)
(1.15485 -0.00503618 0)
(1.1552 -0.0055459 -4.13229e-21)
(1.15558 -0.00611541 1.24601e-21)
(1.156 -0.0067511 5.02901e-21)
(1.15644 -0.00745962 7.08916e-21)
(1.15692 -0.0082483 -7.40479e-21)
(1.15742 -0.00912456 -7.25911e-21)
(1.15796 -0.0100961 7.82485e-21)
(1.15851 -0.0111708 9.55314e-22)
(1.1591 -0.0123564 1.2106e-21)
(1.1597 -0.0136612 -1.40718e-20)
(1.16033 -0.0150926 8.08468e-21)
(1.16097 -0.0166588 -6.74066e-21)
(1.16162 -0.0183667 -7.72269e-21)
(1.16228 -0.0202239 8.80101e-21)
(1.16295 -0.0222367 -2.12423e-20)
(1.16362 -0.0244115 -1.12707e-20)
(1.16428 -0.0267543 -1.26745e-20)
(1.16494 -0.0292698 0)
(1.16559 -0.0319637 2.13614e-21)
(1.16624 -0.0348398 -2.35726e-21)
(1.16687 -0.0379031 1.28039e-21)
(1.1675 -0.0411562 -1.31238e-20)
(1.16813 -0.044604 -3.54731e-23)
(1.16876 -0.0482475 -6.74011e-21)
(1.16939 -0.0520936 0)
(1.17004 -0.0561404 8.24533e-21)
(1.17071 -0.0603946 1.19457e-21)
(1.17142 -0.0648562 1.01674e-20)
(1.17219 -0.069527 0)
(1.17303 -0.0744078 6.37497e-21)
(1.17396 -0.0795009 8.15654e-21)
(1.17501 -0.0848004 9.21456e-21)
(1.17621 -0.0903042 0)
(1.17758 -0.0960078 1.29516e-21)
(1.17916 -0.101893 -6.76799e-21)
(1.18099 -0.107956 7.73361e-21)
(1.18311 -0.114154 5.56059e-22)
(1.18556 -0.120499 9.6358e-21)
(1.18838 -0.126874 -1.01171e-20)
(1.19161 -0.133375 2.55827e-20)
(1.1953 -0.139689 0)
(1.19946 -0.146177 0)
(1.20417 -0.152027 0)
(1.20933 -0.158347 1.24376e-20)
(1.21517 -0.163112 -5.45826e-22)
(1.22118 -0.169213 8.60415e-21)
(1.22824 -0.171994 9.26322e-21)
(1.23463 -0.178147 1.10317e-20)
(1.24304 -0.177663 -1.22668e-20)
(1.24876 -0.184855 1.40176e-20)
(1.25893 -0.179303 -3.17346e-20)
(1.26128 -0.189284 0)
(1.27779 -0.17591 -9.88612e-21)
(1.29269 -0.195527 7.22338e-22)
(1.34077 -0.20106 1.12057e-20)
(0.85923 -0.149897 -4.0777e-20)
(1.15168 -2.15329e-05 -3.80953e-20)
(1.15178 -5.6128e-05 -4.27143e-20)
(1.15183 -9.71712e-05 0)
(1.15187 -0.000135484 0)
(1.15191 -0.000173291 2.50076e-20)
(1.15193 -0.000211449 -2.66097e-20)
(1.15195 -0.000249893 0)
(1.15196 -0.000288888 3.83125e-21)
(1.15198 -0.000328586 -6.10453e-21)
(1.15199 -0.000369136 -1.52007e-23)
(1.152 -0.000410682 -1.60382e-20)
(1.152 -0.000453389 -1.71117e-20)
(1.15201 -0.000497425 -1.36133e-20)
(1.15202 -0.000542985 8.34007e-21)
(1.15202 -0.000590268 1.64717e-20)
(1.15203 -0.000639489 -3.22798e-21)
(1.15203 -0.000690888 1.71683e-21)
(1.15204 -0.000744727 0)
(1.15205 -0.000801291 1.58611e-20)
(1.15206 -0.0008609 0)
(1.15207 -0.000923912 0)
(1.15208 -0.000990735 -9.48309e-21)
(1.1521 -0.00106183 0)
(1.15212 -0.00113773 0)
(1.15215 -0.00121905 -1.10286e-20)
(1.15218 -0.00130647 6.87317e-21)
(1.15221 -0.00140082 -2.17845e-21)
(1.15226 -0.00150301 5.7906e-21)
(1.15231 -0.0016141 -5.03711e-21)
(1.15237 -0.00173531 5.76004e-21)
(1.15244 -0.00186803 6.14304e-21)
(1.15253 -0.00201381 -6.56537e-22)
(1.15262 -0.00217443 6.95967e-22)
(1.15273 -0.00235189 2.51903e-21)
(1.15286 -0.00254844 1.60408e-21)
(1.153 -0.00276659 9.75376e-22)
(1.15316 -0.00300914 9.0122e-22)
(1.15334 -0.00327923 -2.8218e-24)
(1.15354 -0.00358027 -3.77876e-22)
(1.15376 -0.00391612 -1.54798e-22)
(1.15401 -0.00429093 -2.11844e-21)
(1.15428 -0.00470931 4.03474e-21)
(1.15458 -0.00517617 0)
(1.1549 -0.00569702 2.65344e-21)
(1.15525 -0.00627758 5.33592e-21)
(1.15563 -0.00692403 -1.11138e-20)
(1.15603 -0.00764292 -1.30159e-20)
(1.15646 -0.00844121 7.48041e-21)
(1.15692 -0.00932615 -2.63656e-21)
(1.1574 -0.0103052 -3.81987e-21)
(1.1579 -0.0113859 5.67015e-21)
(1.15843 -0.012576 -7.46927e-21)
(1.15897 -0.0138832 0)
(1.15953 -0.0153151 0)
(1.1601 -0.0168796 6.67025e-21)
(1.16068 -0.0185833 8.57061e-21)
(1.16126 -0.0204343 -1.62487e-20)
(1.16184 -0.0224385 -1.06228e-21)
(1.16243 -0.0246027 1.24201e-20)
(1.16301 -0.0269329 1.25432e-20)
(1.16358 -0.0294346 0)
(1.16414 -0.0321135 9.04133e-23)
(1.1647 -0.0349739 2.04128e-21)
(1.16524 -0.0380216 5.08634e-23)
(1.16577 -0.0412594 -1.22943e-21)
(1.1663 -0.0446939 -1.42162e-21)
(1.16683 -0.0483268 1.36985e-20)
(1.16736 -0.0521645 3.70527e-23)
(1.16791 -0.0562085 -7.91888e-21)
(1.16847 -0.0604643 0)
(1.16908 -0.0649344 -1.41287e-21)
(1.16974 -0.0696225 0)
(1.17047 -0.07453 -6.31275e-21)
(1.17129 -0.0796591 0)
(1.17223 -0.0850087 7.97237e-21)
(1.17332 -0.0905758 -9.04302e-21)
(1.17458 -0.0963591 2.03939e-20)
(1.17606 -0.102343 -6.85404e-22)
(1.1778 -0.108522 1.16088e-20)
(1.17982 -0.11486 9.24683e-22)
(1.1822 -0.121365 -8.56972e-21)
(1.18496 -0.127925 1.17376e-20)
(1.18815 -0.134629 -1.36177e-20)
(1.19183 -0.141173 1.29842e-20)
(1.19602 -0.147914 2.14196e-21)
(1.20079 -0.154019 -5.22642e-22)
(1.20605 -0.16064 8.08125e-23)
(1.21205 -0.165633 -1.48043e-20)
(1.21826 -0.172102 1.57817e-20)
(1.2256 -0.174976 -1.82634e-20)
(1.23225 -0.181613 7.04847e-22)
(1.24109 -0.180933 -1.29005e-20)
(1.247 -0.18879 -1.43156e-20)
(1.25792 -0.182592 3.11004e-20)
(1.26019 -0.19354 -1.77983e-20)
(1.27739 -0.179258 9.87481e-21)
(1.28614 -0.198518 -1.216e-20)
(1.34247 -0.202737 7.25248e-22)
(0.877448 -0.155275 3.64332e-20)
(1.15167 -2.08347e-05 0)
(1.15176 -5.51545e-05 -9.69809e-22)
(1.15182 -9.5525e-05 5.67438e-21)
(1.15186 -0.000133807 -6.01842e-21)
(1.15189 -0.000171492 2.90772e-20)
(1.15191 -0.000209549 1.34276e-23)
(1.15193 -0.000247943 1.77966e-23)
(1.15195 -0.000286906 2.73976e-20)
(1.15196 -0.000326615 -2.08073e-20)
(1.15197 -0.000367219 -1.34112e-20)
(1.15198 -0.000408871 1.90091e-20)
(1.15198 -0.000451743 -2.52155e-21)
(1.15199 -0.000496009 2.1196e-20)
(1.15199 -0.000541869 2.85712e-21)
(1.152 -0.000589531 -1.24133e-20)
(1.152 -0.000639225 0)
(1.15201 -0.000691203 -1.76842e-20)
(1.15201 -0.000745742 1.69807e-20)
(1.15202 -0.000803148 2.4256e-21)
(1.15202 -0.000863762 0)
(1.15203 -0.000927967 0)
(1.15204 -0.000996194 7.00395e-21)
(1.15206 -0.00106893 3.78001e-21)
(1.15208 -0.00114674 -2.65155e-21)
(1.1521 -0.00123027 1.23137e-20)
(1.15213 -0.00132023 -1.33236e-20)
(1.15216 -0.00141747 -4.65683e-21)
(1.1522 -0.00152295 -6.38202e-21)
(1.15225 -0.00163774 6.53599e-21)
(1.1523 -0.00176309 0)
(1.15237 -0.00190041 -1.19493e-20)
(1.15244 -0.00205128 -8.07128e-22)
(1.15253 -0.00221748 0)
(1.15263 -0.00240105 -2.49318e-21)
(1.15274 -0.0026042 0)
(1.15287 -0.00282947 -1.91334e-22)
(1.15302 -0.00307964 -6.89166e-22)
(1.15318 -0.00335782 1.1777e-23)
(1.15336 -0.0036674 -5.65203e-22)
(1.15357 -0.00401215 0)
(1.15379 -0.0043962 1.82873e-21)
(1.15403 -0.00482401 -1.96037e-21)
(1.1543 -0.00530044 0)
(1.1546 -0.00583085 7.30042e-22)
(1.15491 -0.00642079 -4.54449e-21)
(1.15525 -0.00707628 9.2959e-21)
(1.15561 -0.00780364 5.31332e-21)
(1.156 -0.00860967 9.01449e-22)
(1.15641 -0.00950141 8.96499e-21)
(1.15684 -0.010486 2.83836e-21)
(1.15729 -0.0115708 1.37855e-21)
(1.15775 -0.0127633 7.39653e-21)
(1.15824 -0.0140711 -1.05141e-21)
(1.15873 -0.0155016 2.33017e-21)
(1.15923 -0.0170625 1.07702e-22)
(1.15974 -0.0187607 9.87129e-21)
(1.16024 -0.0206036 7.53833e-21)
(1.16075 -0.0225978 8.54423e-21)
(1.16125 -0.0247498 0)
(1.16175 -0.0270663 -9.2476e-21)
(1.16223 -0.0295525 0)
(1.16271 -0.032215 6.75594e-21)
(1.16317 -0.0350586 0)
(1.16362 -0.038089 0)
(1.16406 -0.0413106 0)
(1.16449 -0.0447303 0)
(1.16491 -0.0483498 -4.73378e-22)
(1.16534 -0.0521783 -1.19016e-20)
(1.16578 -0.056217 6.93104e-21)
(1.16624 -0.0604727 6.44308e-21)
(1.16674 -0.0649494 -8.57828e-21)
(1.16729 -0.0696515 0)
(1.1679 -0.0745829 1.28285e-21)
(1.16861 -0.0797464 -1.36166e-21)
(1.16943 -0.0851438 -6.93434e-21)
(1.1704 -0.0907736 6.97647e-21)
(1.17155 -0.0966341 -7.01068e-21)
(1.17292 -0.102715 -2.48691e-21)
(1.17454 -0.109012 -1.09955e-20)
(1.17647 -0.115489 0)
(1.17875 -0.122155 1.61925e-20)
(1.18144 -0.128908 -1.28398e-21)
(1.18458 -0.135822 -1.03289e-20)
(1.18823 -0.142611 -1.3365e-20)
(1.19244 -0.14961 1.66086e-20)
(1.19725 -0.155998 -1.035e-20)
(1.20262 -0.162928 7.51143e-22)
(1.20876 -0.168193 9.79769e-23)
(1.21518 -0.175021 -1.68927e-20)
(1.22279 -0.178059 1.72513e-20)
(1.22972 -0.185148 5.66446e-22)
(1.239 -0.184351 1.2993e-20)
(1.24513 -0.192814 -9.15682e-22)
(1.25683 -0.186074 -1.48633e-20)
(1.25896 -0.197845 1.83878e-20)
(1.27719 -0.182799 0)
(1.28016 -0.201605 -1.14803e-20)
(1.34364 -0.204047 -1.48249e-21)
(0.895356 -0.160281 -1.64526e-20)
(1.15166 -2.02425e-05 0)
(1.15175 -5.42824e-05 9.18918e-20)
(1.1518 -9.39307e-05 -5.73748e-21)
(1.15184 -0.000132061 2.46281e-20)
(1.15187 -0.000169574 -2.56214e-20)
(1.15189 -0.000207476 3.45275e-21)
(1.15191 -0.000245767 1.825e-23)
(1.15193 -0.00028465 -3.48555e-20)
(1.15194 -0.000324318 4.60665e-20)
(1.15195 -0.000364926 4.00835e-20)
(1.15195 -0.000406635 -1.88308e-20)
(1.15196 -0.000449614 -2.55538e-21)
(1.15196 -0.000494049 -1.92997e-20)
(1.15197 -0.000540141 2.35389e-20)
(1.15197 -0.000588113 1.22935e-20)
(1.15197 -0.000638207 -3.34014e-21)
(1.15198 -0.000690684 1.40124e-20)
(1.15198 -0.000745835 -1.50158e-20)
(1.15199 -0.000803983 -2.83756e-20)
(1.15199 -0.00086549 0)
(1.152 -0.000930758 1.86573e-20)
(1.15201 -0.00100024 9.91548e-21)
(1.15202 -0.00107446 -2.57924e-21)
(1.15203 -0.00115399 2.73422e-21)
(1.15205 -0.0012395 0)
(1.15208 -0.00133175 2.40789e-20)
(1.1521 -0.0014316 -6.73081e-21)
(1.15214 -0.00154003 -3.52569e-22)
(1.15218 -0.00165815 4.10062e-22)
(1.15223 -0.00178723 -8.27863e-22)
(1.15229 -0.00192867 1.45762e-20)
(1.15235 -0.0020841 0)
(1.15243 -0.0022553 7.79169e-21)
(1.15252 -0.0024443 -8.29647e-22)
(1.15262 -0.00265334 -6.54362e-22)
(1.15274 -0.00288492 9.6729e-22)
(1.15287 -0.00314183 -2.67466e-21)
(1.15302 -0.00342712 0)
(1.15318 -0.00374416 -1.00795e-21)
(1.15336 -0.00409667 -1.25431e-23)
(1.15356 -0.00448868 3.35289e-22)
(1.15379 -0.00492461 1.86883e-21)
(1.15403 -0.00540917 0)
(1.15429 -0.00594759 0)
(1.15457 -0.00654526 0)
(1.15487 -0.00720811 1.11447e-22)
(1.1552 -0.00794226 1.87521e-22)
(1.15554 -0.00875425 -6.18095e-21)
(1.1559 -0.00965086 9.01021e-22)
(1.15628 -0.0106392 -9.55219e-22)
(1.15668 -0.0117262 0)
(1.15709 -0.0129194 -1.51275e-21)
(1.15751 -0.014226 7.21445e-22)
(1.15794 -0.0156533 9.35392e-22)
(1.15837 -0.017209 1.17365e-21)
(1.1588 -0.0188998 -1.11591e-20)
(1.15924 -0.0207332 -1.42078e-21)
(1.15967 -0.0227158 -6.05703e-21)
(1.16009 -0.0248543 -9.63411e-22)
(1.1605 -0.0271556 9.11483e-21)
(1.1609 -0.029625 8.43532e-21)
(1.16129 -0.0322698 1.27172e-21)
(1.16166 -0.0350946 1.4716e-21)
(1.16201 -0.0381068 -1.56115e-21)
(1.16236 -0.0413103 6.32467e-21)
(1.16269 -0.0447133 0)
(1.16301 -0.0483189 -8.33497e-21)
(1.16334 -0.052135 8.29527e-22)
(1.16367 -0.0561665 4.65061e-21)
(1.16402 -0.0604197 -5.65272e-21)
(1.16441 -0.0649006 -7.85267e-22)
(1.16484 -0.0696146 0)
(1.16533 -0.0745678 0)
(1.16592 -0.0797627 1.20163e-21)
(1.16662 -0.0852063 -6.03278e-21)
(1.16746 -0.090894 -5.52106e-21)
(1.16849 -0.0968319 -7.40966e-21)
(1.16973 -0.103009 -1.11926e-22)
(1.17124 -0.109421 1.02977e-20)
(1.17305 -0.116041 -1.09484e-20)
(1.17523 -0.12287 -7.5712e-21)
(1.17783 -0.129821 -8.01659e-21)
(1.18091 -0.136949 2.06419e-20)
(1.18452 -0.143998 1.35497e-20)
(1.18872 -0.15126 -1.7506e-20)
(1.19356 -0.157962 1.05814e-20)
(1.19903 -0.165196 -1.27206e-21)
(1.20529 -0.170788 0)
(1.21193 -0.177967 -1.49332e-20)
(1.21978 -0.181243 1.1887e-21)
(1.22703 -0.188748 -2.20084e-20)
(1.23675 -0.187933 0)
(1.24315 -0.196932 0)
(1.25562 -0.189769 0)
(1.25764 -0.202214 1.1685e-21)
(1.27719 -0.186537 -2.09135e-20)
(1.27473 -0.204811 2.29518e-20)
(1.34427 -0.205122 0)
(0.911284 -0.164745 -2.03469e-20)
(1.15166 -1.9708e-05 1.9641e-20)
(1.15174 -5.34524e-05 -9.30676e-20)
(1.15179 -9.23558e-05 -5.27425e-20)
(1.15183 -0.000130231 -1.82396e-20)
(1.15185 -0.00016752 -1.31126e-20)
(1.15188 -0.000205213 4.21299e-20)
(1.15189 -0.000243347 -1.4862e-20)
(1.15191 -0.000282103 -2.41076e-20)
(1.15192 -0.00032168 4.94747e-21)
(1.15193 -0.000362239 -2.23583e-20)
(1.15193 -0.000403943 -1.94984e-20)
(1.15194 -0.000446974 0)
(1.15194 -0.000491515 2.18214e-20)
(1.15194 -0.00053778 -4.72197e-20)
(1.15195 -0.000585996 -2.55578e-20)
(1.15195 -0.00063641 6.88796e-21)
(1.15195 -0.000689298 7.19717e-21)
(1.15195 -0.000744968 0)
(1.15195 -0.000803755 1.21477e-20)
(1.15196 -0.000866039 4.39083e-21)
(1.15196 -0.00093224 -1.84999e-20)
(1.15197 -0.00100283 -1.99783e-20)
(1.15198 -0.00107836 -2.64952e-21)
(1.15199 -0.00115941 -8.62466e-21)
(1.152 -0.0012467 1.06115e-20)
(1.15202 -0.00134098 2.09914e-21)
(1.15205 -0.00144315 1.27449e-20)
(1.15208 -0.00155421 4.94076e-21)
(1.15211 -0.00167529 -6.77839e-21)
(1.15215 -0.00180767 9.30314e-21)
(1.1522 -0.00195279 -1.4709e-20)
(1.15226 -0.00211225 6.84077e-21)
(1.15233 -0.00228786 -6.00276e-21)
(1.15241 -0.00248165 0)
(1.1525 -0.00269585 -3.67724e-21)
(1.1526 -0.00293297 0)
(1.15272 -0.00319573 2.66563e-21)
(1.15285 -0.0034872 2.35254e-21)
(1.153 -0.00381067 8.67691e-22)
(1.15316 -0.00416981 7.943e-22)
(1.15334 -0.00456859 1.36369e-22)
(1.15353 -0.00501132 -4.61957e-22)
(1.15375 -0.00550266 1.53326e-21)
(1.15398 -0.00604761 2.48067e-21)
(1.15423 -0.00665152 -9.70599e-22)
(1.1545 -0.00732011 -5.34936e-21)
(1.15478 -0.00805929 7.71155e-22)
(1.15508 -0.00887552 4.86874e-21)
(1.1554 -0.00977531 3.95078e-21)
(1.15573 -0.0107655 7.61886e-22)
(1.15607 -0.011853 -7.97575e-21)
(1.15643 -0.013045 -3.03424e-21)
(1.15679 -0.0143486 1.43712e-21)
(1.15715 -0.0157711 -7.21173e-21)
(1.15752 -0.0173199 -9.57904e-22)
(1.15788 -0.0190017 1.01573e-21)
(1.15825 -0.0208241 -1.23948e-21)
(1.1586 -0.0227935 1.35595e-20)
(1.15894 -0.0249169 -1.48094e-21)
(1.15927 -0.0272014 6.05245e-21)
(1.15959 -0.0296526 -7.46266e-21)
(1.15988 -0.0322779 -8.44188e-21)
(1.16016 -0.0350829 8.15894e-21)
(1.16043 -0.0380749 0)
(1.16067 -0.0412586 -7.69951e-21)
(1.16091 -0.0446434 1.50684e-21)
(1.16113 -0.0482318 0)
(1.16135 -0.0520348 1.95421e-21)
(1.16157 -0.0560562 -3.57908e-21)
(1.16181 -0.0603051 -1.1034e-21)
(1.16208 -0.0647863 0)
(1.16239 -0.0695102 -4.85835e-21)
(1.16276 -0.074481 0)
(1.16322 -0.079705 -6.31395e-21)
(1.16379 -0.0851895 4.72655e-21)
(1.1645 -0.0909349 5.48627e-21)
(1.16539 -0.0969464 6.42938e-21)
(1.1665 -0.103217 0)
(1.16788 -0.109744 -1.61331e-21)
(1.16957 -0.116506 4.31513e-22)
(1.17163 -0.1235 1.4282e-21)
(1.17412 -0.130652 8.9774e-21)
(1.17712 -0.138002 -9.53788e-21)
(1.18067 -0.145318 -1.31164e-20)
(1.18485 -0.152854 0)
(1.1897 -0.159896 -1.1366e-21)
(1.19525 -0.167439 1.19986e-21)
(1.20164 -0.173408 -1.19499e-20)
(1.20849 -0.180921 1.31675e-20)
(1.21659 -0.184526 1.91164e-20)
(1.22417 -0.192403 2.09951e-20)
(1.23432 -0.191694 -1.58913e-21)
(1.24105 -0.201145 1.65605e-21)
(1.2543 -0.193691 1.55837e-20)
(1.25623 -0.206668 1.17064e-21)
(1.27727 -0.190466 3.82193e-20)
(1.27003 -0.208249 2.30437e-20)
(1.34455 -0.206147 1.4659e-21)
(0.927174 -0.169097 1.54837e-20)
(1.15165 -1.92149e-05 0)
(1.15173 -5.26395e-05 4.38853e-20)
(1.15178 -9.07853e-05 9.99433e-20)
(1.15181 -0.000128323 -6.24102e-21)
(1.15184 -0.000165335 0)
(1.15186 -0.000202767 -5.64813e-20)
(1.15188 -0.000240693 0)
(1.15189 -0.000279271 3.17653e-20)
(1.1519 -0.000318705 -3.39024e-20)
(1.15191 -0.000359162 4.59307e-21)
(1.15191 -0.000400806 1.44822e-20)
(1.15192 -0.000443822 0)
(1.15192 -0.000488407 0)
(1.15192 -0.000534773 2.3699e-20)
(1.15192 -0.000583152 2.85868e-20)
(1.15192 -0.000633811 -1.69915e-20)
(1.15192 -0.000687028 0)
(1.15192 -0.000743121 3.95209e-21)
(1.15192 -0.000802441 -8.41427e-21)
(1.15192 -0.000865381 4.47856e-21)
(1.15193 -0.00093238 -1.94747e-20)
(1.15193 -0.00100393 1.00712e-20)
(1.15194 -0.00108059 2.72262e-21)
(1.15194 -0.00116297 -3.29624e-21)
(1.15196 -0.0012518 4.69956e-22)
(1.15197 -0.00134787 -1.26404e-20)
(1.15199 -0.00145208 1.38879e-20)
(1.15201 -0.00156544 0)
(1.15204 -0.00168911 0)
(1.15208 -0.00182438 -7.41409e-21)
(1.15212 -0.0019727 -5.75113e-22)
(1.15217 -0.00213569 -1.5054e-20)
(1.15223 -0.00231514 -2.01113e-21)
(1.1523 -0.00251309 1.99824e-21)
(1.15238 -0.00273177 2.62953e-21)
(1.15247 -0.00297364 8.78103e-22)
(1.15257 -0.00324143 -9.30887e-22)
(1.15268 -0.00353813 -2.65198e-21)
(1.15281 -0.00386705 -2.71747e-22)
(1.15295 -0.00423173 -3.49191e-22)
(1.15311 -0.00463612 -6.03572e-23)
(1.15328 -0.00508441 6.39879e-23)
(1.15347 -0.00558115 -1.02671e-21)
(1.15367 -0.00613126 -2.06858e-21)
(1.15389 -0.00673994 3.59109e-22)
(1.15412 -0.0074127 1.78815e-21)
(1.15437 -0.00815537 -6.71556e-22)
(1.15463 -0.00897416 -1.51711e-22)
(1.1549 -0.0098754 -3.72167e-21)
(1.15518 -0.0108658 0)
(1.15547 -0.0119521 1.76174e-21)
(1.15577 -0.0131412 -2.07317e-21)
(1.15607 -0.0144401 -3.67014e-21)
(1.15638 -0.015856 5.64946e-21)
(1.15668 -0.0173962 0)
(1.15698 -0.0190673 0)
(1.15727 -0.0208771 9.67236e-22)
(1.15754 -0.0228316 -5.83115e-21)
(1.15781 -0.0249387 0)
(1.15806 -0.0272045 -6.01361e-21)
(1.15829 -0.029636 5.73547e-21)
(1.1585 -0.0322406 1.11055e-21)
(1.15869 -0.0350239 -8.10795e-21)
(1.15886 -0.0379939 -6.47861e-21)
(1.15901 -0.0411563 0)
(1.15914 -0.04452 0)
(1.15926 -0.0480903 -3.47512e-21)
(1.15938 -0.0518768 5.02091e-21)
(1.15949 -0.0558855 -2.56756e-23)
(1.15962 -0.0601265 8.01051e-22)
(1.15977 -0.0646064 9.3315e-22)
(1.15995 -0.0693351 1.05394e-21)
(1.1602 -0.0743209 3.21892e-21)
(1.16053 -0.0795699 1.06605e-20)
(1.16096 -0.0850933 5.1664e-21)
(1.16153 -0.0908908 -6.19287e-21)
(1.16228 -0.0969724 5.95128e-22)
(1.16324 -0.103334 -1.35908e-21)
(1.16447 -0.109973 -7.53935e-21)
(1.16602 -0.116877 1.11256e-20)
(1.16795 -0.124036 -1.18052e-21)
(1.17033 -0.13139 -5.79004e-21)
(1.17322 -0.138968 7.33212e-21)
(1.17669 -0.146561 0)
(1.18083 -0.154384 0)
(1.18568 -0.161784 0)
(1.19129 -0.169645 1.82911e-20)
(1.19778 -0.176047 1.35985e-20)
(1.20484 -0.183882 -1.74617e-20)
(1.21318 -0.187902 -1.52851e-20)
(1.22112 -0.196105 2.00238e-20)
(1.23169 -0.195635 2.32167e-20)
(1.2388 -0.205452 2.76911e-20)
(1.25283 -0.197851 -3.22574e-20)
(1.25477 -0.211217 1.08401e-21)
(1.27738 -0.194582 -3.9495e-20)
(1.26594 -0.211934 -4.47587e-20)
(1.3447 -0.207291 -2.89586e-21)
(0.940723 -0.17313 4.30414e-21)
(1.15165 -1.87465e-05 -2.04311e-20)
(1.15172 -5.18226e-05 -4.09264e-23)
(1.15176 -8.92079e-05 -5.05819e-21)
(1.1518 -0.00012633 -5.1043e-20)
(1.15182 -0.000163013 -6.09731e-20)
(1.15184 -0.000200138 -5.44482e-22)
(1.15186 -0.000237802 0)
(1.15187 -0.000276152 0)
(1.15188 -0.000315389 0)
(1.15189 -0.000355688 4.65677e-21)
(1.15189 -0.000397217 -4.93692e-21)
(1.1519 -0.000440163 -5.33209e-21)
(1.1519 -0.000484721 5.65257e-21)
(1.1519 -0.000531119 2.45914e-20)
(1.1519 -0.000579593 2.96298e-20)
(1.15189 -0.00063041 2.47753e-20)
(1.15189 -0.000683863 0)
(1.15189 -0.000740279 4.02775e-21)
(1.15189 -0.000800022 -4.26969e-21)