/*--------------------------------*- C++ -*----------------------------------*\
  =========                 |
  \\      /  F ield         | OpenFOAM: The Open Source CFD Toolbox
   \\    /   O peration     | Website:  https://openfoam.org
    \\  /    A nd           | Version:  9
     \\/     M anipulation  |
\*---------------------------------------------------------------------------*/
FoamFile
{
    format      ascii;
    class       volScalarField;
    location    "3000";
    object      gammaInt;
}
// * * * * * * * * * * * * * * * * * * * * * * * * * * * * * * * * * * * * * //

dimensions      [0 0 0 0 0 0 0];

internalField   nonuniform List<scalar> 
13617
(
0.997783
0.998234
0.99836
0.998404
0.998381
0.998337
0.998275
0.998192
0.998088
0.997968
0.997839
0.997703
0.997556
0.997395
0.997218
0.997022
0.996807
0.996572
0.996313
0.996029
0.995719
0.99538
0.99501
0.994608
0.994173
0.993704
0.993203
0.99267
0.992107
0.991518
0.990907
0.990279
0.989642
0.989003
0.988371
0.987762
0.987181
0.986639
0.986151
0.985726
0.985376
0.985111
0.984941
0.984873
0.984914
0.985065
0.985327
0.985697
0.986169
0.986732
0.98737
0.988064
0.988773
0.989475
0.990149
0.990773
0.991319
0.991771
0.992125
0.992379
0.992533
0.99259
0.992539
0.992367
0.992053
0.991583
0.990948
0.990158
0.989221
0.988165
0.986949
0.985497
0.983901
0.982736
0.982439
0.980992
0.973187
0.949575
0.887885
0.778945
0.681793
0.563863
0.390217
0.25999
0.232806
0.28923
0.997764
0.998198
0.99833
0.998378
0.998359
0.998319
0.998263
0.998186
0.998087
0.997973
0.99785
0.99772
0.997579
0.997424
0.997253
0.997064
0.996855
0.996625
0.996372
0.996094
0.995789
0.995453
0.995087
0.994687
0.994253
0.993785
0.993281
0.992745
0.992176
0.99158
0.990959
0.99032
0.989668
0.989012
0.988362
0.987732
0.987127
0.98656
0.986044
0.985591
0.985211
0.984915
0.984714
0.984615
0.984625
0.984747
0.984981
0.985326
0.985775
0.986319
0.986944
0.98763
0.988332
0.989028
0.989695
0.990322
0.990886
0.99137
0.99177
0.992079
0.992297
0.992428
0.992457
0.992367
0.992132
0.991722
0.991101
0.990302
0.989341
0.988236
0.986969
0.985475
0.983805
0.98236
0.981667
0.980744
0.97446
0.95744
0.916178
0.827346
0.734957
0.647309
0.503005
0.352861
0.261226
0.251097
0.99775
0.998159
0.998297
0.998349
0.998335
0.998301
0.998251
0.998179
0.998086
0.997979
0.997863
0.997739
0.997605
0.997456
0.997292
0.997109
0.996906
0.996683
0.996436
0.996163
0.995862
0.995532
0.995169
0.994772
0.994339
0.993871
0.993366
0.992826
0.992253
0.991649
0.991019
0.990368
0.989702
0.98903
0.988362
0.98771
0.987083
0.986491
0.985948
0.985467
0.985057
0.984732
0.9845
0.984371
0.984352
0.984446
0.984654
0.984975
0.985403
0.98593
0.986542
0.987221
0.98792
0.98861
0.989267
0.989892
0.990465
0.990972
0.991406
0.991762
0.992037
0.992234
0.992343
0.992342
0.992193
0.991835
0.991261
0.990485
0.989513
0.988379
0.987075
0.985559
0.983849
0.982213
0.981168
0.980464
0.975928
0.962675
0.936326
0.868881
0.783759
0.711901
0.606459
0.467949
0.345863
0.279012
0.997736
0.99812
0.998264
0.998321
0.998311
0.998283
0.998239
0.998174
0.998088
0.997986
0.997877
0.997759
0.997632
0.99749
0.997332
0.997156
0.99696
0.996742
0.996501
0.996234
0.995939
0.995613
0.995254
0.99486
0.99443
0.993962
0.993456
0.992913
0.992335
0.991725
0.991086
0.990424
0.989745
0.989057
0.98837
0.987698
0.987047
0.98643
0.985861
0.985351
0.984912
0.984556
0.984293
0.984134
0.984085
0.984151
0.984333
0.98463
0.985038
0.985548
0.986148
0.986821
0.98752
0.988196
0.988839
0.989456
0.990032
0.990552
0.991011
0.991403
0.991725
0.991978
0.992157
0.992235
0.992176
0.99192
0.991414
0.99069
0.989744
0.988607
0.987286
0.985772
0.984051
0.982311
0.981002
0.980329
0.977136
0.966125
0.947499
0.90099
0.827715
0.760227
0.689837
0.577962
0.454745
0.358386
0.997721
0.99808
0.998231
0.998293
0.998288
0.998266
0.998228
0.99817
0.99809
0.997995
0.997892
0.997781
0.99766
0.997525
0.997374
0.997204
0.997015
0.996804
0.996569
0.996308
0.996018
0.995698
0.995343
0.994953
0.994525
0.994058
0.993552
0.993007
0.992425
0.991808
0.99116
0.990488
0.989795
0.989092
0.988387
0.987694
0.987021
0.986378
0.985781
0.985242
0.984773
0.984386
0.984093
0.983902
0.983823
0.983859
0.984015
0.984288
0.984675
0.985169
0.985758
0.986425
0.987126
0.987783
0.988403
0.989008
0.98958
0.990105
0.990578
0.990994
0.991351
0.991649
0.991882
0.992028
0.992048
0.991887
0.991491
0.990859
0.989977
0.988881
0.98759
0.986109
0.984416
0.982643
0.981189
0.980427
0.977978
0.968509
0.953171
0.923296
0.865542
0.802077
0.748374
0.66798
0.561066
0.457721
0.997705
0.99804
0.998199
0.998266
0.998266
0.99825
0.998218
0.998167
0.998093
0.998005
0.997908
0.997804
0.99769
0.997561
0.997417
0.997254
0.997071
0.996867
0.996638
0.996384
0.9961
0.995785
0.995435
0.995049
0.994624
0.994158
0.993652
0.993106
0.99252
0.991897
0.991242
0.990559
0.989854
0.989135
0.988413
0.987699
0.987003
0.986335
0.98571
0.985142
0.984642
0.984223
0.983897
0.983675
0.983564
0.983571
0.983699
0.983948
0.984315
0.984792
0.98537
0.986032
0.986737
0.987369
0.987962
0.988546
0.989107
0.989629
0.990106
0.990536
0.990913
0.991242
0.991516
0.991714
0.991798
0.991713
0.991407
0.990874
0.990097
0.989098
0.987866
0.986433
0.984785
0.983004
0.98145
0.980541
0.978358
0.970112
0.956283
0.935081
0.895133
0.840192
0.791722
0.737448
0.652961
0.556201
0.997688
0.998001
0.998166
0.998239
0.998245
0.998235
0.99821
0.998164
0.998097
0.998015
0.997925
0.997828
0.99772
0.997599
0.99746
0.997304
0.997128
0.996931
0.996709
0.996461
0.996184
0.995874
0.99553
0.995148
0.994726
0.994263
0.993758
0.99321
0.992621
0.991994
0.991331
0.990638
0.989921
0.989187
0.988447
0.987713
0.986993
0.9863
0.985648
0.98505
0.984519
0.984067
0.983708
0.983453
0.983311
0.983287
0.983386
0.98361
0.983956
0.984417
0.984983
0.985642
0.986346
0.986954
0.987515
0.988072
0.988613
0.989123
0.989595
0.990026
0.990413
0.990757
0.991056
0.99129
0.99142
0.991396
0.991158
0.990697
0.989997
0.989068
0.987917
0.986542
0.984911
0.983096
0.981428
0.980297
0.978173
0.970966
0.958102
0.940462
0.914044
0.872299
0.828739
0.790251
0.727457
0.64417
0.997671
0.997962
0.998135
0.998213
0.998224
0.99822
0.998202
0.998163
0.998102
0.998027
0.997943
0.997852
0.997751
0.997636
0.997505
0.997355
0.997186
0.996996
0.996781
0.996539
0.996268
0.995965
0.995626
0.995249
0.994831
0.994371
0.993867
0.993319
0.992728
0.992096
0.991427
0.990725
0.989996
0.989247
0.98849
0.987736
0.986993
0.986274
0.985594
0.984966
0.984403
0.983918
0.983526
0.983237
0.983061
0.983006
0.983076
0.983274
0.983598
0.984042
0.984598
0.985253
0.98595
0.986538
0.987066
0.987587
0.988101
0.98859
0.989047
0.989468
0.98985
0.990196
0.990502
0.990755
0.990913
0.990928
0.990735
0.990324
0.989672
0.988785
0.987675
0.986319
0.984678
0.982787
0.980933
0.979508
0.977375
0.971042
0.959033
0.942786
0.92256
0.894778
0.859993
0.830027
0.784876
0.717366
0.997651
0.997923
0.998104
0.998187
0.998204
0.998206
0.998195
0.998163
0.998108
0.998039
0.997962
0.997877
0.997783
0.997675
0.99755
0.997407
0.997245
0.997061
0.996853
0.996619
0.996354
0.996057
0.995725
0.995353
0.99494
0.994483
0.99398
0.993433
0.99284
0.992204
0.991529
0.990818
0.990078
0.989316
0.988542
0.987768
0.987002
0.986258
0.985549
0.984891
0.984295
0.983777
0.98335
0.983027
0.982817
0.982729
0.982769
0.98294
0.983241
0.983668
0.984213
0.984865
0.985549
0.98612
0.986615
0.987097
0.987573
0.988031
0.988462
0.988861
0.989226
0.989558
0.989855
0.990107
0.990274
0.990305
0.990136
0.989748
0.989118
0.988245
0.98714
0.985774
0.984089
0.982084
0.980002
0.978227
0.975953
0.970297
0.95916
0.943526
0.92558
0.905112
0.881307
0.858531
0.826002
0.773991
0.997631
0.997884
0.998073
0.998162
0.998185
0.998193
0.998188
0.998163
0.998115
0.998052
0.997981
0.997903
0.997815
0.997713
0.997595
0.997459
0.997304
0.997127
0.996926
0.996698
0.996441
0.996151
0.995824
0.995458
0.99505
0.994597
0.994097
0.99355
0.992957
0.992318
0.991637
0.990918
0.990168
0.989392
0.988602
0.987809
0.987021
0.986251
0.985514
0.984825
0.984197
0.983644
0.983182
0.982823
0.982578
0.982456
0.982465
0.982608
0.982885
0.983295
0.983828
0.984477
0.985143
0.985698
0.986163
0.986602
0.987034
0.98745
0.987844
0.988209
0.988542
0.988845
0.989116
0.989347
0.9895
0.989524
0.989353
0.988961
0.988326
0.987435
0.986302
0.984896
0.983132
0.980995
0.978647
0.97647
0.973934
0.968722
0.958425
0.943248
0.925821
0.908106
0.890353
0.873906
0.851432
0.813523
0.99761
0.997846
0.998043
0.998138
0.998166
0.998181
0.998183
0.998164
0.998122
0.998065
0.998001
0.997929
0.997847
0.997752
0.99764
0.997511
0.997362
0.997192
0.996999
0.996778
0.996528
0.996245
0.995925
0.995565
0.995162
0.994714
0.994217
0.993672
0.993078
0.992436
0.991751
0.991026
0.990265
0.989477
0.988671
0.987859
0.987048
0.986253
0.985488
0.984768
0.984107
0.98352
0.983021
0.982625
0.982344
0.982188
0.982164
0.982278
0.982531
0.982921
0.983443
0.984084
0.98473
0.98527
0.985709
0.986105
0.986486
0.986852
0.987196
0.987514
0.9878
0.988057
0.988285
0.988473
0.988589
0.988584
0.988383
0.987957
0.987287
0.986347
0.985151
0.983667
0.981799
0.979496
0.97686
0.974239
0.971337
0.966326
0.956752
0.942064
0.924553
0.907205
0.891703
0.878861
0.863522
0.837159
0.997587
0.997807
0.998013
0.998114
0.998149
0.99817
0.998178
0.998165
0.99813
0.998079
0.99802
0.997955
0.99788
0.997791
0.997686
0.997563
0.997421
0.997258
0.997071
0.996858
0.996615
0.996339
0.996026
0.995673
0.995276
0.994832
0.994339
0.993796
0.993203
0.99256
0.991871
0.991139
0.990369
0.989569
0.988748
0.987918
0.987086
0.986266
0.985473
0.984722
0.984027
0.983404
0.982869
0.982436
0.982117
0.981925
0.981867
0.98195
0.982177
0.982548
0.983057
0.983685
0.984311
0.984837
0.985253
0.985608
0.985934
0.98624
0.986524
0.986781
0.987006
0.987201
0.987365
0.98749
0.987545
0.987481
0.987223
0.986733
0.985992
0.98497
0.983675
0.982072
0.980067
0.977568
0.974627
0.971529
0.968152
0.96312
0.954096
0.939943
0.922246
0.904252
0.888698
0.876909
0.865546
0.847497
0.997563
0.99777
0.997984
0.998091
0.998132
0.998159
0.998174
0.998167
0.998138
0.998093
0.998041
0.997981
0.997912
0.997829
0.99773
0.997614
0.997478
0.997322
0.997143
0.996937
0.996701
0.996433
0.996127
0.995781
0.995391
0.994952
0.994464
0.993924
0.993332
0.992688
0.991996
0.991259
0.990481
0.98967
0.988834
0.987986
0.987133
0.986288
0.985467
0.984685
0.983957
0.983298
0.982725
0.982253
0.981897
0.981667
0.981574
0.981625
0.981825
0.982174
0.98267
0.983281
0.983884
0.984396
0.984793
0.98511
0.985381
0.985622
0.985834
0.986016
0.986165
0.986279
0.986359
0.986399
0.986367
0.986217
0.985872
0.985286
0.984439
0.983296
0.98186
0.9801
0.977911
0.975185
0.971913
0.968322
0.964388
0.959114
0.950423
0.936785
0.919005
0.900103
0.883374
0.870838
0.860738
0.847724
0.997538
0.997732
0.997955
0.998068
0.998115
0.998149
0.99817
0.99817
0.998146
0.998108
0.998061
0.998007
0.997944
0.997867
0.997774
0.997664
0.997535
0.997386
0.997213
0.997015
0.996787
0.996526
0.996228
0.995889
0.995506
0.995074
0.994591
0.994054
0.993464
0.992821
0.992126
0.991384
0.990599
0.989778
0.988929
0.988063
0.987189
0.98632
0.985472
0.984659
0.983897
0.983202
0.982591
0.98208
0.981683
0.981415
0.981285
0.981303
0.981474
0.9818
0.982281
0.982869
0.983449
0.983947
0.984327
0.984611
0.984829
0.985
0.985133
0.985229
0.985285
0.985301
0.985277
0.985208
0.985064
0.984798
0.984333
0.983616
0.982624
0.981319
0.9797
0.977734
0.975315
0.972322
0.968693
0.964592
0.96004
0.954341
0.945713
0.932478
0.91476
0.895051
0.876798
0.862472
0.851643
0.8407
0.997512
0.997695
0.997927
0.998047
0.998099
0.998139
0.998167
0.998173
0.998155
0.998122
0.998081
0.998033
0.997975
0.997904
0.997818
0.997714
0.997591
0.997449
0.997283
0.997092
0.996872
0.996619
0.996329
0.995998
0.995621
0.995196
0.994719
0.994187
0.993599
0.992957
0.992261
0.991515
0.990724
0.989893
0.989031
0.988149
0.987255
0.986363
0.985487
0.984643
0.983847
0.983115
0.982466
0.981914
0.981477
0.981169
0.981001
0.980983
0.981123
0.981425
0.981889
0.982449
0.983006
0.98349
0.983855
0.984109
0.984277
0.984378
0.984426
0.984425
0.984375
0.984275
0.984126
0.983924
0.98364
0.983229
0.982611
0.981727
0.980551
0.979041
0.977191
0.974969
0.97227
0.968959
0.964937
0.960302
0.955093
0.948824
0.940035
0.927001
0.909372
0.889099
0.869335
0.852732
0.839886
0.829008
0.997484
0.997659
0.9979
0.998025
0.998084
0.99813
0.998164
0.998176
0.998164
0.998136
0.9981
0.998058
0.998006
0.997941
0.99786
0.997762
0.997646
0.99751
0.997351
0.997168
0.996955
0.99671
0.996428
0.996105
0.995737
0.995319
0.994848
0.994321
0.993737
0.993096
0.9924
0.991652
0.990855
0.990016
0.989142
0.988245
0.987332
0.986416
0.985513
0.984639
0.983808
0.98304
0.982351
0.981758
0.98128
0.980929
0.980721
0.980667
0.980774
0.981049
0.981494
0.982021
0.982554
0.983023
0.983374
0.983603
0.983725
0.983759
0.983719
0.983614
0.983445
0.983213
0.982919
0.98256
0.982109
0.981522
0.980718
0.979628
0.978227
0.976466
0.974335
0.971803
0.968768
0.965084
0.960624
0.955427
0.949522
0.942567
0.933406
0.9204
0.902863
0.882214
0.861148
0.842175
0.826891
0.815135
0.997456
0.997623
0.997873
0.998005
0.998069
0.998122
0.998161
0.998179
0.998173
0.99815
0.99812
0.998083
0.998036
0.997977
0.997901
0.997809
0.997699
0.99757
0.997418
0.997242
0.997037
0.9968
0.996527
0.996212
0.995852
0.995442
0.994977
0.994456
0.993877
0.993239
0.992544
0.991794
0.990992
0.990146
0.989262
0.988349
0.987418
0.98648
0.98555
0.984645
0.983781
0.982975
0.982246
0.981612
0.98109
0.980697
0.980447
0.980353
0.980426
0.980671
0.981091
0.981585
0.982094
0.982546
0.982884
0.983091
0.983173
0.983143
0.983016
0.982801
0.982505
0.982126
0.981669
0.98113
0.980485
0.97969
0.978664
0.977333
0.975663
0.973606
0.971142
0.968246
0.964811
0.960692
0.955741
0.949944
0.943301
0.935571
0.925852
0.91269
0.895247
0.874446
0.852365
0.831303
0.813676
0.800497
0.997426
0.997587
0.997846
0.997985
0.998055
0.998114
0.998159
0.998183
0.998182
0.998164
0.998139
0.998107
0.998066
0.998011
0.997941
0.997855
0.997751
0.997628
0.997483
0.997314
0.997117
0.996888
0.996623
0.996318
0.995966
0.995564
0.995108
0.994593
0.994019
0.993385
0.992691
0.99194
0.991136
0.990283
0.989389
0.988463
0.987514
0.986554
0.985599
0.984664
0.983765
0.982922
0.982153
0.981476
0.98091
0.980473
0.980179
0.980044
0.980078
0.980293
0.980681
0.981142
0.981624
0.982058
0.982384
0.982573
0.982621
0.982531
0.98232
0.981994
0.981563
0.981027
0.98039
0.979649
0.978784
0.97775
0.976469
0.974859
0.972876
0.970476
0.967627
0.964307
0.960409
0.95579
0.950288
0.943844
0.936426
0.927835
0.917398
0.903897
0.886517
0.865692
0.842895
0.820254
0.800634
0.785691
0.997396
0.997552
0.997821
0.997965
0.998042
0.998106
0.998158
0.998187
0.99819
0.998178
0.998157
0.99813
0.998094
0.998044
0.99798
0.997899
0.997801
0.997684
0.997546
0.997384
0.997195
0.996975
0.996718
0.996422
0.996079
0.995686
0.995238
0.994731
0.994163
0.993533
0.992842
0.992091
0.991285
0.990426
0.989524
0.988585
0.98762
0.986639
0.985658
0.984694
0.983762
0.982881
0.982071
0.981351
0.98074
0.980256
0.979917
0.979738
0.979732
0.979912
0.980265
0.980692
0.981144
0.981559
0.981873
0.982047
0.982065
0.981923
0.981631
0.981197
0.980629
0.979927
0.979097
0.978137
0.977026
0.975725
0.974153
0.972225
0.96989
0.967097
0.963812
0.960007
0.955581
0.950394
0.944276
0.937132
0.928889
0.919371
0.90808
0.894082
0.876682
0.855868
0.83264
0.808995
0.787716
0.770746
0.997364
0.997517
0.997795
0.997947
0.998029
0.998099
0.998156
0.99819
0.998199
0.998191
0.998175
0.998153
0.998121
0.998076
0.998017
0.997941
0.997849
0.997738
0.997607
0.997452
0.997271
0.997059
0.996812
0.996524
0.996191
0.995807
0.995368
0.994869
0.994308
0.993683
0.992996
0.992247
0.991439
0.990577
0.989667
0.988717
0.987736
0.986735
0.98573
0.984736
0.983771
0.982852
0.982001
0.981236
0.980579
0.980048
0.979661
0.979436
0.979387
0.979529
0.979843
0.980234
0.980656
0.981048
0.981349
0.981509
0.981504
0.981317
0.980951
0.980413
0.979708
0.978837
0.977803
0.976609
0.975232
0.973636
0.971742
0.96946
0.966731
0.963499
0.959722
0.955373
0.950355
0.944529
0.937727
0.929825
0.920706
0.910196
0.897933
0.883308
0.865781
0.844942
0.821527
0.797363
0.774583
0.755487
0.997331
0.997483
0.997771
0.997928
0.998016
0.998092
0.998154
0.998193
0.998207
0.998203
0.998192
0.998174
0.998147
0.998107
0.998053
0.997982
0.997895
0.99779
0.997665
0.997518
0.997344
0.997141
0.996902
0.996624
0.996301
0.995927
0.995497
0.995007
0.994454
0.993836
0.993153
0.992407
0.991599
0.990734
0.989818
0.988858
0.987862
0.986842
0.985814
0.984791
0.983792
0.982836
0.981943
0.981134
0.980429
0.979848
0.979412
0.979138
0.979044
0.979144
0.979416
0.979768
0.980158
0.980526
0.980812
0.98096
0.980935
0.980712
0.98028
0.979643
0.978805
0.977765
0.976523
0.975082
0.973422
0.971507
0.969263
0.966592
0.963428
0.959709
0.955391
0.950438
0.944767
0.938236
0.930679
0.921954
0.911903
0.900335
0.887007
0.871643
0.853854
0.832946
0.809519
0.78506
0.760813
0.739816
0.997297
0.99745
0.997747
0.99791
0.998004
0.998085
0.998152
0.998197
0.998214
0.998215
0.998208
0.998194
0.998171
0.998136
0.998086
0.998021
0.997939
0.99784
0.997722
0.997581
0.997415
0.99722
0.996991
0.996722
0.996409
0.996045
0.995625
0.995145
0.9946
0.99399
0.993313
0.992571
0.991764
0.990898
0.989976
0.989007
0.987998
0.986961
0.985909
0.984859
0.983827
0.982834
0.981899
0.981044
0.98029
0.979659
0.979171
0.978846
0.978702
0.978757
0.978983
0.979296
0.979651
0.979993
0.980262
0.980399
0.980358
0.980104
0.979616
0.978889
0.977924
0.976717
0.975266
0.973571
0.971616
0.969363
0.966742
0.963649
0.960011
0.955762
0.950853
0.945245
0.938858
0.931557
0.923182
0.913569
0.902524
0.889831
0.875363
0.859156
0.840957
0.819937
0.79655
0.771732
0.746064
0.723823
0.997263
0.997416
0.997723
0.997893
0.997992
0.998078
0.998151
0.998199
0.998221
0.998226
0.998223
0.998213
0.998195
0.998164
0.998118
0.998058
0.997981
0.997888
0.997776
0.997642
0.997484
0.997297
0.997077
0.996818
0.996515
0.996162
0.995753
0.995283
0.994748
0.994146
0.993476
0.992738
0.991935
0.991068
0.990143
0.989166
0.988145
0.987091
0.986017
0.98494
0.983876
0.982845
0.981868
0.980967
0.980163
0.979479
0.978937
0.978558
0.978362
0.978368
0.978546
0.978817
0.979136
0.979449
0.979701
0.979826
0.979771
0.979492
0.978957
0.978151
0.977067
0.9757
0.974042
0.972092
0.969832
0.967228
0.964205
0.960661
0.956513
0.951696
0.946151
0.939838
0.932683
0.924554
0.915294
0.904732
0.892626
0.878741
0.863065
0.845912
0.827153
0.805973
0.782504
0.757049
0.730135
0.707714
0.997227
0.997383
0.9977
0.997876
0.99798
0.998071
0.998149
0.998202
0.998228
0.998236
0.998236
0.998231
0.998216
0.99819
0.998149
0.998093
0.998021
0.997933
0.997827
0.9977
0.997549
0.997371
0.99716
0.996911
0.996619
0.996277
0.995879
0.99542
0.994895
0.994302
0.993641
0.992909
0.99211
0.991244
0.990317
0.989333
0.988302
0.987233
0.986138
0.985034
0.983939
0.982871
0.981851
0.980903
0.980048
0.979311
0.978712
0.978276
0.978024
0.977976
0.978105
0.978331
0.978614
0.978897
0.979127
0.979239
0.979172
0.978874
0.978301
0.977425
0.976235
0.974715
0.972858
0.970655
0.968088
0.965119
0.961677
0.957657
0.952972
0.947552
0.941336
0.934277
0.926304
0.91729
0.907086
0.895505
0.882271
0.86712
0.85018
0.831968
0.812497
0.791076
0.767228
0.740762
0.713007
0.691658
0.997191
0.997351
0.997677
0.997859
0.997968
0.998064
0.998146
0.998204
0.998233
0.998245
0.998249
0.998247
0.998236
0.998214
0.998177
0.998125
0.998059
0.997976
0.997876
0.997755
0.997612
0.997442
0.99724
0.997002
0.996721
0.99639
0.996003
0.995556
0.995042
0.99446
0.993808
0.993084
0.992289
0.991426
0.990498
0.98951
0.98847
0.987386
0.986272
0.985143
0.984016
0.982911
0.981849
0.980854
0.979947
0.979153
0.978496
0.978
0.977688
0.977582
0.977659
0.97784
0.978084
0.978334
0.97854
0.978637
0.978561
0.978247
0.977644
0.976712
0.975426
0.973767
0.971719
0.969269
0.966395
0.963055
0.959181
0.954669
0.949426
0.943379
0.936462
0.928621
0.919782
0.909827
0.898615
0.885946
0.871508
0.855009
0.836739
0.817364
0.797052
0.775237
0.75056
0.722751
0.694768
0.675656
0.997153
0.997319
0.997654
0.997842
0.997956
0.998057
0.998144
0.998205
0.998238
0.998253
0.99826
0.998262
0.998255
0.998236
0.998203
0.998156
0.998094
0.998016
0.997922
0.997808
0.997672
0.99751
0.997318
0.99709
0.99682
0.996501
0.996127
0.995691
0.99519
0.994619
0.993976
0.993261
0.992474
0.991614
0.990687
0.989696
0.988648
0.987551
0.986419
0.985266
0.984108
0.982967
0.981863
0.980819
0.979859
0.979008
0.97829
0.97773
0.977354
0.977186
0.977208
0.977343
0.977544
0.977759
0.977938
0.978022
0.977936
0.977611
0.976985
0.976007
0.97464
0.972855
0.970629
0.967941
0.964762
0.961053
0.956744
0.951732
0.945917
0.939224
0.931581
0.922923
0.913172
0.902214
0.889921
0.876086
0.860364
0.842423
0.822756
0.802115
0.780852
0.758394
0.73237
0.703072
0.675581
0.659475
0.997115
0.997287
0.997632
0.997826
0.997945
0.99805
0.998141
0.998205
0.998242
0.99826
0.99827
0.998275
0.998271
0.998256
0.998227
0.998184
0.998127
0.998054
0.997965
0.997857
0.997729
0.997575
0.997393
0.997175
0.996916
0.99661
0.996248
0.995826
0.995337
0.994778
0.994147
0.993442
0.992662
0.991808
0.990883
0.98989
0.988836
0.987729
0.98658
0.985403
0.984216
0.983038
0.981892
0.9808
0.979786
0.978875
0.978094
0.977468
0.977024
0.976788
0.976754
0.976835
0.976991
0.977172
0.977325
0.977391
0.977294
0.976961
0.97632
0.975306
0.973874
0.97198
0.969589
0.966675
0.963204
0.959133
0.954394
0.948882
0.94249
0.935135
0.926736
0.917222
0.906507
0.894482
0.881029
0.865938
0.848838
0.829348
0.808196
0.786215
0.763899
0.740451
0.712588
0.681923
0.65559
0.642656
0.997075
0.997255
0.99761
0.99781
0.997933
0.998043
0.998137
0.998205
0.998244
0.998266
0.998279
0.998287
0.998286
0.998274
0.998249
0.99821
0.998157
0.99809
0.998006
0.997905
0.997783
0.997638
0.997465
0.997258
0.99701
0.996716
0.996368
0.995959
0.995484
0.994938
0.99432
0.993626
0.992855
0.992008
0.991087
0.990094
0.989035
0.987918
0.986754
0.985555
0.984339
0.983126
0.981938
0.980797
0.979727
0.978756
0.977908
0.977213
0.976696
0.976387
0.976293
0.976314
0.976425
0.976573
0.976699
0.976741
0.976635
0.976297
0.975645
0.974606
0.973121
0.971134
0.968598
0.965477
0.961733
0.957318
0.952159
0.946149
0.939175
0.931141
0.921957
0.911542
0.899808
0.886639
0.871933
0.855485
0.836901
0.815743
0.793015
0.76962
0.746127
0.721258
0.691251
0.659652
0.634897
0.624645
0.997035
0.997224
0.997588
0.997793
0.997921
0.998035
0.998133
0.998204
0.998246
0.99827
0.998286
0.998297
0.998299
0.998291
0.998269
0.998234
0.998185
0.998122
0.998044
0.997949
0.997835
0.997698
0.997534
0.997338
0.997102
0.996821
0.996486
0.996091
0.995631
0.995099
0.994494
0.993812
0.993052
0.992214
0.991298
0.990307
0.989245
0.98812
0.986942
0.985722
0.984479
0.983231
0.982
0.98081
0.979685
0.97865
0.977734
0.976965
0.976372
0.975984
0.975819
0.975782
0.975848
0.975958
0.976052
0.976075
0.975956
0.975612
0.974955
0.9739
0.972374
0.97031
0.96765
0.964347
0.960353
0.955615
0.950051
0.943547
0.93598
0.927246
0.917244
0.905877
0.893056
0.878664
0.86261
0.844701
0.824508
0.80156
0.777166
0.752301
0.727458
0.700684
0.668517
0.636677
0.613513
0.604938
0.996993
0.997193
0.997567
0.997777
0.997909
0.998026
0.998128
0.998202
0.998247
0.998273
0.998292
0.998305
0.99831
0.998305
0.998287
0.998255
0.998211
0.998153
0.99808
0.997991
0.997884
0.997755
0.997601
0.997415
0.997191
0.996923
0.996603
0.996223
0.995777
0.995261
0.99467
0.994002
0.993254
0.992425
0.991516
0.990529
0.989466
0.988335
0.987144
0.985905
0.984635
0.983353
0.982081
0.980841
0.979659
0.97856
0.977573
0.976727
0.976052
0.97558
0.975333
0.975237
0.975255
0.975321
0.975386
0.975389
0.975255
0.974906
0.974245
0.97318
0.971624
0.969499
0.966736
0.963273
0.959053
0.954007
0.948048
0.941052
0.932882
0.923421
0.912562
0.900191
0.886214
0.870517
0.853021
0.833553
0.811641
0.786794
0.760646
0.734277
0.707845
0.678687
0.644745
0.613447
0.591394
0.583217
0.996951
0.997162
0.997545
0.997761
0.997897
0.998017
0.998122
0.998199
0.998246
0.998275
0.998295
0.998311
0.998319
0.998317
0.998302
0.998274
0.998234
0.998181
0.998113
0.998031
0.99793
0.99781
0.997664
0.997489
0.997278
0.997023
0.996717
0.996352
0.995923
0.995422
0.994848
0.994195
0.99346
0.992643
0.991742
0.99076
0.989698
0.988563
0.987361
0.986104
0.984809
0.983494
0.98218
0.98089
0.97965
0.978485
0.977424
0.976497
0.975736
0.975173
0.974836
0.97468
0.974636
0.974658
0.974698
0.974675
0.97453
0.974175
0.973512
0.972443
0.970866
0.968694
0.965843
0.962237
0.957804
0.95246
0.946106
0.93861
0.929819
0.919602
0.907843
0.894416
0.879219
0.862144
0.843136
0.822028
0.798302
0.771479
0.743514
0.715656
0.687317
0.655405
0.620467
0.590337
0.568471
0.559494
0.996908
0.997131
0.997523
0.997744
0.997884
0.998008
0.998115
0.998194
0.998244
0.998275
0.998298
0.998316
0.998327
0.998327
0.998315
0.998291
0.998255
0.998206
0.998144
0.998067
0.997974
0.997861
0.997725
0.99756
0.997361
0.997119
0.996829
0.99648
0.996067
0.995584
0.995027
0.99439
0.993671
0.992866
0.991976
0.991001
0.989942
0.988803
0.987592
0.98632
0.985
0.983653
0.982298
0.980958
0.979659
0.978426
0.977288
0.976277
0.975424
0.974764
0.974327
0.9741
0.973989
0.973971
0.973973
0.973929
0.973775
0.973415
0.972754
0.971683
0.970094
0.967886
0.964959
0.961221
0.956583
0.950946
0.944195
0.936184
0.926753
0.915751
0.903051
0.888523
0.872057
0.853545
0.832968
0.810157
0.78456
0.755728
0.725907
0.696614
0.665965
0.631176
0.596338
0.567602
0.544713
0.534158
0.996863
0.997099
0.997501
0.997727
0.99787
0.997997
0.998107
0.998189
0.99824
0.998273
0.998298
0.998318
0.998332
0.998335
0.998326
0.998306
0.998274
0.99823
0.998173
0.998101
0.998014
0.997909
0.997781
0.997627
0.997439
0.997212
0.996937
0.996605
0.99621
0.995745
0.995206
0.994587
0.993885
0.993095
0.992218
0.991251
0.990196
0.989057
0.987839
0.986552
0.98521
0.983831
0.982436
0.981046
0.979686
0.978384
0.977167
0.976067
0.975118
0.974353
0.973808
0.973487
0.973314
0.973245
0.973205
0.973146
0.972976
0.972621
0.971965
0.970902
0.969307
0.967072
0.964082
0.960223
0.95539
0.949468
0.942325
0.933797
0.923713
0.911909
0.898241
0.882571
0.864789
0.844795
0.822597
0.798018
0.770512
0.739648
0.708006
0.677339
0.64393
0.606601
0.57303
0.545264
0.520221
0.507962
0.996818
0.997068
0.997479
0.99771
0.997857
0.997986
0.998099
0.998182
0.998235
0.99827
0.998297
0.998319
0.998335
0.998341
0.998335
0.998318
0.99829
0.998251
0.998198
0.998132
0.998051
0.997952
0.997833
0.997688
0.997512
0.997299
0.997039
0.996725
0.99635
0.995905
0.995385
0.994786
0.994102
0.99333
0.992466
0.99151
0.990463
0.989325
0.988102
0.986802
0.985439
0.984029
0.982594
0.981154
0.979734
0.97836
0.977061
0.975869
0.974817
0.973941
0.973277
0.972846
0.972611
0.972466
0.972394
0.972304
0.972127
0.971774
0.971134
0.970087
0.968504
0.966256
0.963219
0.95926
0.954251
0.948063
0.940545
0.931517
0.920787
0.908175
0.893527
0.876684
0.85755
0.836032
0.812172
0.785775
0.75634
0.723457
0.690117
0.658066
0.62148
0.582497
0.551043
0.523125
0.495193
0.481719
0.996771
0.997036
0.997457
0.997693
0.997842
0.997974
0.998089
0.998174
0.998229
0.998265
0.998293
0.998318
0.998336
0.998344
0.998342
0.998329
0.998305
0.998269
0.998221
0.998159
0.998083
0.997991
0.997879
0.997743
0.997578
0.997377
0.997133
0.996837
0.996483
0.99606
0.995563
0.994984
0.994321
0.993568
0.992721
0.991779
0.99074
0.989606
0.988381
0.98707
0.985687
0.984248
0.982773
0.981283
0.979801
0.978354
0.97697
0.975681
0.974521
0.973527
0.972736
0.972176
0.971843
0.971635
0.971515
0.971395
0.97121
0.970863
0.970241
0.969221
0.967662
0.965425
0.962363
0.95833
0.953178
0.946756
0.938894
0.929394
0.918045
0.904643
0.889024
0.871017
0.850511
0.827435
0.801861
0.773598
0.742189
0.707222
0.672304
0.638559
0.598637
0.55952
0.530353
0.500679
0.470186
0.457849
0.996723
0.997004
0.997434
0.997674
0.997827
0.997961
0.998078
0.998165
0.998221
0.998259
0.998288
0.998315
0.998335
0.998346
0.998347
0.998337
0.998316
0.998284
0.99824
0.998182
0.998111
0.998023
0.997917
0.997789
0.997633
0.997444
0.997215
0.996937
0.996603
0.996205
0.995734
0.995182
0.994541
0.993809
0.992982
0.992056
0.991029
0.989901
0.988675
0.987356
0.985955
0.984489
0.982975
0.981435
0.979891
0.978368
0.976897
0.975507
0.974233
0.973112
0.972183
0.971481
0.971018
0.970749
0.970551
0.970405
0.970197
0.969868
0.969267
0.968285
0.966762
0.964551
0.961495
0.957415
0.952151
0.945531
0.937357
0.927415
0.915474
0.901299
0.884716
0.865541
0.843657
0.818999
0.791694
0.761549
0.72815
0.691285
0.655221
0.619341
0.576562
0.538957
0.511148
0.478638
0.447159
0.996674
0.996972
0.997411
0.997656
0.997811
0.997947
0.998065
0.998154
0.998212
0.99825
0.998282
0.99831
0.998332
0.998345
0.998349
0.998343
0.998325
0.998296
0.998255
0.9982
0.998132
0.998048
0.997947
0.997826
0.997679
0.997501
0.997285
0.997024
0.99671
0.996336
0.995892
0.995371
0.99476
0.994052
0.993247
0.992339
0.991327
0.990208
0.988984
0.98766
0.986243
0.984751
0.9832
0.98161
0.980003
0.978404
0.976841
0.975345
0.973952
0.972696
0.971619
0.97076
0.970143
0.969758
0.969504
0.969302
0.969091
0.968753
0.968186
0.967245
0.965781
0.963612
0.960579
0.956494
0.951151
0.944368
0.935926
0.925571
0.91306
0.898133
0.880583
0.860224
0.836932
0.810657
0.781568
0.749479
0.714027
0.996624
0.996938
0.997387
0.997636
0.997794
0.997932
0.998052
0.998142
0.998201
0.99824
0.998273
0.998303
0.998327
0.998343
0.99835
0.998346
0.998331
0.998304
0.998265
0.998213
0.998147
0.998066
0.997969
0.997854
0.997715
0.997547
0.997344
0.997098
0.996803
0.996452
0.996036
0.995546
0.99497
0.994294
0.993513
0.992628
0.991633
0.990527
0.989309
0.987981
0.986552
0.985035
0.983448
0.981808
0.980138
0.978461
0.976804
0.975199
0.973679
0.972281
0.971045
0.970014
0.96922
0.968678
0.968338
0.968071
0.967837
0.967505
0.966956
0.966072
0.964672
0.962579
0.959591
0.955523
0.950154
0.943248
0.934577
0.923856
0.910797
0.895132
0.87662
0.855042
0.830295
0.802336
0.771367
0.737212
0.699649
0.996573
0.996904
0.997363
0.997616
0.997776
0.997916
0.998037
0.998128
0.998188
0.998229
0.998263
0.998294
0.99832
0.998339
0.998348
0.998346
0.998333
0.998308
0.99827
0.998219
0.998154
0.998076
0.997983
0.997873
0.99774
0.997582
0.99739
0.997159
0.996882
0.996552
0.996162
0.995704
0.995166
0.994529
0.993779
0.992919
0.991946
0.990856
0.989647
0.98832
0.986881
0.985342
0.98372
0.982033
0.980299
0.978542
0.976789