/*--------------------------------*- C++ -*----------------------------------*\
  =========                 |
  \\      /  F ield         | OpenFOAM: The Open Source CFD Toolbox
   \\    /   O peration     | Website:  https://openfoam.org
    \\  /    A nd           | Version:  9
     \\/     M anipulation  |
\*---------------------------------------------------------------------------*/
FoamFile
{
    format      ascii;
    class       volScalarField;
    location    "3000";
    object      k;
}
// * * * * * * * * * * * * * * * * * * * * * * * * * * * * * * * * * * * * * //

dimensions      [0 2 -2 0 0 0 0];

internalField   nonuniform List<scalar> 
13617
(
7.56339e-07
7.47001e-06
7.82623e-06
8.1983e-06
8.58652e-06
8.9896e-06
9.40735e-06
9.83979e-06
1.02868e-05
1.07478e-05
1.12229e-05
1.1712e-05
1.22147e-05
1.27308e-05
1.32599e-05
1.38014e-05
1.43554e-05
1.4921e-05
1.54975e-05
1.60842e-05
1.66805e-05
1.72856e-05
1.78988e-05
1.8519e-05
1.91457e-05
1.97774e-05
2.04137e-05
2.10535e-05
2.16959e-05
2.234e-05
2.2985e-05
2.36297e-05
2.42734e-05
2.49155e-05
2.55555e-05
2.61922e-05
2.68254e-05
2.74543e-05
2.80788e-05
2.86981e-05
2.93119e-05
2.99204e-05
3.05233e-05
3.11204e-05
3.17122e-05
3.2298e-05
3.28779e-05
3.3452e-05
3.40194e-05
3.458e-05
3.51329e-05
3.56787e-05
3.6217e-05
3.67469e-05
3.72696e-05
3.77866e-05
3.82971e-05
3.88017e-05
3.93019e-05
3.97991e-05
4.02963e-05
4.07947e-05
4.12959e-05
4.18034e-05
4.23204e-05
4.28499e-05
4.33937e-05
4.39522e-05
4.45277e-05
4.51225e-05
4.57398e-05
4.63853e-05
4.70631e-05
4.77786e-05
4.85542e-05
4.94798e-05
5.07503e-05
5.26274e-05
5.55474e-05
6.00156e-05
6.65755e-05
7.95687e-05
8.80552e-05
0.000113454
0.000183121
0.000277062
5.18339e-07
7.66666e-06
8.03211e-06
8.40921e-06
8.80233e-06
9.21014e-06
9.6323e-06
1.00685e-05
1.05184e-05
1.09824e-05
1.14598e-05
1.19505e-05
1.24542e-05
1.29704e-05
1.34988e-05
1.40387e-05
1.45899e-05
1.51518e-05
1.57236e-05
1.63045e-05
1.6894e-05
1.74911e-05
1.80949e-05
1.87048e-05
1.93196e-05
1.99387e-05
2.0561e-05
2.11857e-05
2.18118e-05
2.24384e-05
2.30646e-05
2.36898e-05
2.43131e-05
2.49337e-05
2.5551e-05
2.61647e-05
2.67742e-05
2.73789e-05
2.79784e-05
2.85723e-05
2.91608e-05
2.97434e-05
3.03199e-05
3.08909e-05
3.1457e-05
3.20169e-05
3.25711e-05
3.31198e-05
3.36624e-05
3.41987e-05
3.47283e-05
3.52512e-05
3.57668e-05
3.62761e-05
3.67794e-05
3.72768e-05
3.77686e-05
3.82563e-05
3.87409e-05
3.92238e-05
3.97069e-05
4.01924e-05
4.0683e-05
4.11811e-05
4.16892e-05
4.221e-05
4.27462e-05
4.32993e-05
4.38702e-05
4.44606e-05
4.50747e-05
4.57159e-05
4.63895e-05
4.71002e-05
4.78664e-05
4.87719e-05
4.99784e-05
5.16851e-05
5.4492e-05
5.94135e-05
6.58574e-05
8.52864e-05
9.22365e-05
0.000111922
0.000179776
0.000257459
8.81944e-07
7.89155e-06
8.26592e-06
8.64773e-06
9.04538e-06
9.45739e-06
9.88317e-06
1.03226e-05
1.07755e-05
1.12412e-05
1.17199e-05
1.22112e-05
1.27143e-05
1.32293e-05
1.37556e-05
1.42927e-05
1.48398e-05
1.53965e-05
1.5962e-05
1.65357e-05
1.71166e-05
1.77041e-05
1.82971e-05
1.88948e-05
1.94965e-05
2.01013e-05
2.07081e-05
2.1316e-05
2.19243e-05
2.25319e-05
2.31383e-05
2.37425e-05
2.4344e-05
2.49421e-05
2.55363e-05
2.6126e-05
2.67109e-05
2.72906e-05
2.78646e-05
2.84329e-05
2.89953e-05
2.95515e-05
3.01022e-05
3.06474e-05
3.11872e-05
3.17218e-05
3.22507e-05
3.27739e-05
3.3292e-05
3.38042e-05
3.43103e-05
3.48105e-05
3.53044e-05
3.57928e-05
3.6276e-05
3.67542e-05
3.72283e-05
3.7699e-05
3.81676e-05
3.86358e-05
3.9105e-05
3.95779e-05
4.00568e-05
4.05437e-05
4.10418e-05
4.15538e-05
4.20819e-05
4.26276e-05
4.31918e-05
4.37766e-05
4.43846e-05
4.50196e-05
4.56864e-05
4.63902e-05
4.71472e-05
4.8032e-05
4.91728e-05
5.07313e-05
5.36404e-05
5.91414e-05
6.47907e-05
8.74298e-05
9.34347e-05
0.000110686
0.000175963
0.000250379
1.39271e-06
8.12523e-06
8.50971e-06
8.89586e-06
9.29764e-06
9.71329e-06
1.01422e-05
1.05843e-05
1.10387e-05
1.1506e-05
1.19852e-05
1.2476e-05
1.29783e-05
1.34912e-05
1.40144e-05
1.45472e-05
1.50895e-05
1.56403e-05
1.61987e-05
1.67639e-05
1.73354e-05
1.79121e-05
1.84933e-05
1.90781e-05
1.96656e-05
2.0255e-05
2.08454e-05
2.14358e-05
2.20254e-05
2.26137e-05
2.31998e-05
2.37825e-05
2.43621e-05
2.49376e-05
2.55081e-05
2.60738e-05
2.66344e-05
2.71889e-05
2.77377e-05
2.82805e-05
2.8817e-05
2.93478e-05
2.9873e-05
3.03928e-05
3.09072e-05
3.14162e-05
3.19207e-05
3.24204e-05
3.29148e-05
3.34037e-05
3.38874e-05
3.43659e-05
3.48392e-05
3.53068e-05
3.57702e-05
3.623e-05
3.66862e-05
3.71402e-05
3.75934e-05
3.80467e-05
3.85024e-05
3.89626e-05
3.94289e-05
3.9905e-05
4.03932e-05
4.08955e-05
4.14146e-05
4.19519e-05
4.25088e-05
4.30863e-05
4.36864e-05
4.43139e-05
4.4973e-05
4.56685e-05
4.64156e-05
4.72802e-05
4.8362e-05
4.98058e-05
5.29333e-05
5.85229e-05
6.3834e-05
8.78073e-05
9.29394e-05
0.00010988
0.000175661
0.000251002
1.95414e-06
8.37232e-06
8.7614e-06
9.15154e-06
9.55687e-06
9.97577e-06
1.04073e-05
1.08512e-05
1.13071e-05
1.17746e-05
1.22535e-05
1.27433e-05
1.32434e-05
1.37532e-05
1.42726e-05
1.48008e-05
1.53368e-05
1.58801e-05
1.64302e-05
1.69863e-05
1.75472e-05
1.81122e-05
1.86806e-05
1.92513e-05
1.98237e-05
2.03968e-05
2.09699e-05
2.15422e-05
2.21128e-05
2.26809e-05
2.32456e-05
2.38068e-05
2.43639e-05
2.4916e-05
2.5463e-05
2.60046e-05
2.65405e-05
2.70701e-05
2.75938e-05
2.81114e-05
2.86226e-05
2.91282e-05
2.96282e-05
3.01232e-05
3.06129e-05
3.10977e-05
3.15782e-05
3.2054e-05
3.25254e-05
3.29923e-05
3.34541e-05
3.39111e-05
3.43639e-05
3.48126e-05
3.52577e-05
3.56991e-05
3.61381e-05
3.65763e-05
3.70141e-05
3.74526e-05
3.78948e-05
3.83421e-05
3.87965e-05
3.92611e-05
3.97385e-05
4.02304e-05
4.074e-05
4.12679e-05
4.18157e-05
4.23852e-05
4.29775e-05
4.35963e-05
4.4246e-05
4.49329e-05
4.56707e-05
4.65142e-05
4.75439e-05
4.88989e-05
5.23186e-05
5.73476e-05
6.26431e-05
8.8545e-05
9.32169e-05
0.000109957
0.000177611
0.000255143
2.53268e-06
8.6263e-06
9.02277e-06
9.41636e-06
9.82487e-06
1.02461e-05
1.06795e-05
1.11246e-05
1.1581e-05
1.20483e-05
1.2526e-05
1.30137e-05
1.35107e-05
1.40165e-05
1.45308e-05
1.50525e-05
1.55814e-05
1.61166e-05
1.66573e-05
1.72026e-05
1.77516e-05
1.83036e-05
1.88578e-05
1.94135e-05
1.99698e-05
2.05256e-05
2.10804e-05
2.16335e-05
2.21838e-05
2.27309e-05
2.32739e-05
2.38125e-05
2.43465e-05
2.4875e-05
2.53979e-05
2.59148e-05
2.64256e-05
2.69305e-05
2.74292e-05
2.79214e-05
2.84073e-05
2.88878e-05
2.93629e-05
2.98329e-05
3.02983e-05
3.07594e-05
3.12161e-05
3.16688e-05
3.21177e-05
3.25626e-05
3.30037e-05
3.34404e-05
3.38734e-05
3.43034e-05
3.473e-05
3.51538e-05
3.55765e-05
3.59987e-05
3.64213e-05
3.6846e-05
3.72748e-05
3.77089e-05
3.81514e-05
3.86048e-05
3.90712e-05
3.95527e-05
4.00521e-05
4.05701e-05
4.11087e-05
4.1669e-05
4.22523e-05
4.28621e-05
4.35028e-05
4.41812e-05
4.4909e-05
4.57332e-05
4.67191e-05
4.80144e-05
5.1784e-05
5.5934e-05
6.13028e-05
8.98862e-05
9.43532e-05
0.000110855
0.000182342
0.000262805
3.13154e-06
8.89234e-06
9.29541e-06
9.69185e-06
1.01028e-05
1.05258e-05
1.09604e-05
1.14059e-05
1.18618e-05
1.23276e-05
1.28031e-05
1.32875e-05
1.37803e-05
1.42808e-05
1.47888e-05
1.53031e-05
1.58232e-05
1.63486e-05
1.68784e-05
1.74116e-05
1.79475e-05
1.84852e-05
1.90241e-05
1.95632e-05
2.01019e-05
2.06392e-05
2.11745e-05
2.1707e-05
2.22359e-05
2.27609e-05
2.32813e-05
2.37968e-05
2.43067e-05
2.48109e-05
2.5309e-05
2.58009e-05
2.62867e-05
2.67662e-05
2.72393e-05
2.7706e-05
2.81667e-05
2.86221e-05
2.90726e-05
2.95183e-05
2.99594e-05
3.03967e-05
3.08307e-05
3.12609e-05
3.16876e-05
3.21111e-05
3.25313e-05
3.29481e-05
3.33624e-05
3.37734e-05
3.41821e-05
3.45895e-05
3.49961e-05
3.54026e-05
3.58104e-05
3.62214e-05
3.6637e-05
3.70585e-05
3.74895e-05
3.79314e-05
3.83868e-05
3.88576e-05
3.93464e-05
3.98548e-05
4.03838e-05
4.09351e-05
4.15094e-05
4.21107e-05
4.27429e-05
4.3412e-05
4.41304e-05
4.494e-05
4.58908e-05
4.7143e-05
5.1353e-05
5.46637e-05
5.99847e-05
9.07614e-05
9.50122e-05
0.000111645
0.000188539
0.000271057
3.76463e-06
9.16636e-06
9.57968e-06
9.97844e-06
1.0391e-05
1.08152e-05
1.12498e-05
1.16946e-05
1.21489e-05
1.26123e-05
1.30842e-05
1.3564e-05
1.40513e-05
1.45454e-05
1.50453e-05
1.55506e-05
1.60608e-05
1.6575e-05
1.70921e-05
1.76118e-05
1.8133e-05
1.86547e-05
1.91767e-05
1.96979e-05
2.02175e-05
2.07347e-05
2.12491e-05
2.17601e-05
2.22667e-05
2.27685e-05
2.32653e-05
2.37564e-05
2.42417e-05
2.47208e-05
2.51935e-05
2.56601e-05
2.61202e-05
2.65741e-05
2.70215e-05
2.74628e-05
2.78985e-05
2.8329e-05
2.87544e-05
2.91756e-05
2.95931e-05
3.00071e-05
3.04181e-05
3.08264e-05
3.12318e-05
3.16345e-05
3.20345e-05
3.24317e-05
3.28272e-05
3.32204e-05
3.36119e-05
3.4003e-05
3.4394e-05
3.47857e-05
3.51795e-05
3.55768e-05
3.59795e-05
3.63889e-05
3.6808e-05
3.72391e-05
3.7684e-05
3.81443e-05
3.86236e-05
3.9122e-05
3.96416e-05
4.01837e-05
4.07493e-05
4.13419e-05
4.19646e-05
4.26241e-05
4.3334e-05
4.4131e-05
4.50504e-05
4.6276e-05
5.11768e-05
5.3735e-05
5.86444e-05
9.16677e-05
9.48719e-05
0.000112493
0.000192009
0.000274376
4.39905e-06
9.45562e-06
9.87619e-06
1.02761e-05
1.06894e-05
1.11133e-05
1.1547e-05
1.19899e-05
1.24416e-05
1.29011e-05
1.33681e-05
1.38421e-05
1.4322e-05
1.48075e-05
1.52982e-05
1.57931e-05
1.62914e-05
1.67927e-05
1.72958e-05
1.78001e-05
1.83048e-05
1.88093e-05
1.93126e-05
1.98144e-05
2.03136e-05
2.08096e-05
2.13018e-05
2.17899e-05
2.22728e-05
2.27504e-05
2.32227e-05
2.36888e-05
2.41484e-05
2.46018e-05
2.5049e-05
2.54895e-05
2.59238e-05
2.63518e-05
2.67734e-05
2.71892e-05
2.75997e-05
2.80053e-05
2.84065e-05
2.88038e-05
2.91978e-05
2.95889e-05
2.99776e-05
3.03643e-05
3.07488e-05
3.11312e-05
3.15117e-05
3.18902e-05
3.22672e-05
3.26432e-05
3.30184e-05
3.33937e-05
3.37696e-05
3.41469e-05
3.45271e-05
3.49117e-05
3.53022e-05
3.57003e-05
3.61081e-05
3.65277e-05
3.69619e-05
3.74125e-05
3.78814e-05
3.837e-05
3.88801e-05
3.94127e-05
3.99696e-05
4.05525e-05
4.11655e-05
4.18159e-05
4.25156e-05
4.32992e-05
4.41835e-05
4.54434e-05
5.11321e-05
5.29856e-05
5.74171e-05
9.04674e-05
9.356e-05
0.000113314
0.000190766
0.000270424
5.05752e-06
9.75862e-06
1.01839e-05
1.05841e-05
1.0997e-05
1.14197e-05
1.18511e-05
1.22908e-05
1.2738e-05
1.31921e-05
1.36527e-05
1.4119e-05
1.45901e-05
1.50657e-05
1.55452e-05
1.60277e-05
1.65127e-05
1.69991e-05
1.74863e-05
1.79738e-05
1.84604e-05
1.89456e-05
1.94289e-05
1.99095e-05
2.03868e-05
2.086e-05
2.13288e-05
2.17928e-05
2.22512e-05
2.2704e-05
2.31507e-05
2.3591e-05
2.40246e-05
2.44517e-05
2.48723e-05
2.52866e-05
2.56947e-05
2.60965e-05
2.64927e-05
2.68832e-05
2.72685e-05
2.76495e-05
2.80264e-05
2.84004e-05
2.87717e-05
2.91405e-05
2.95077e-05
2.98731e-05
3.02371e-05
3.06001e-05
3.09617e-05
3.13221e-05
3.16819e-05
3.20415e-05
3.24008e-05
3.27607e-05
3.31219e-05
3.34855e-05
3.38529e-05
3.4225e-05
3.46034e-05
3.49902e-05
3.53869e-05
3.57956e-05
3.62196e-05
3.66594e-05
3.71177e-05
3.75965e-05
3.80965e-05
3.86192e-05
3.91662e-05
3.97389e-05
4.03414e-05
4.09803e-05
4.16686e-05
4.24377e-05
4.32806e-05
4.46807e-05
5.07279e-05
5.20368e-05
5.63197e-05
8.60259e-05
9.20801e-05
0.0001154
0.000186323
0.000261746
5.72424e-06
1.00759e-05
1.05032e-05
1.09026e-05
1.13137e-05
1.17335e-05
1.2161e-05
1.25959e-05
1.30374e-05
1.34845e-05
1.39368e-05
1.43935e-05
1.4854e-05
1.53178e-05
1.57842e-05
1.62523e-05
1.67218e-05
1.71916e-05
1.76613e-05
1.81297e-05
1.85965e-05
1.90611e-05
1.95228e-05
1.99807e-05
2.04346e-05
2.08839e-05
2.1328e-05
2.17666e-05
2.21995e-05
2.26262e-05
2.30464e-05
2.34602e-05
2.38673e-05
2.42677e-05
2.46617e-05
2.50495e-05
2.54314e-05
2.58074e-05
2.61779e-05
2.65433e-05
2.69038e-05
2.72603e-05
2.76136e-05
2.79645e-05
2.83134e-05
2.86606e-05
2.90068e-05
2.93521e-05
2.96964e-05
3.00405e-05
3.0384e-05
3.07271e-05
3.10702e-05
3.14136e-05
3.17579e-05
3.21033e-05
3.24505e-05
3.28008e-05
3.31553e-05
3.35152e-05
3.3882e-05
3.42572e-05
3.46428e-05
3.50406e-05
3.54537e-05
3.58831e-05
3.63308e-05
3.67988e-05
3.72879e-05
3.77999e-05
3.83355e-05
3.88971e-05
3.9488e-05
4.01146e-05
4.07903e-05
4.15415e-05
4.23429e-05
4.39737e-05
4.96882e-05
5.0729e-05
5.52855e-05
7.96923e-05
9.08567e-05
0.000116765
0.000179921
0.000252319
6.42308e-06
1.04009e-05
1.08337e-05
1.12305e-05
1.16383e-05
1.20537e-05
1.24759e-05
1.29042e-05
1.33375e-05
1.37756e-05
1.42179e-05
1.4663e-05
1.51108e-05
1.55608e-05
1.60121e-05
1.6464e-05
1.6916e-05
1.73673e-05
1.78172e-05
1.82651e-05
1.87103e-05
1.91523e-05
1.95906e-05
2.00246e-05
2.04538e-05
2.08779e-05
2.12962e-05
2.17085e-05
2.21147e-05
2.25144e-05
2.29078e-05
2.32945e-05
2.36743e-05
2.40478e-05
2.44153e-05
2.47767e-05
2.51323e-05
2.54822e-05
2.58271e-05
2.61675e-05
2.65039e-05
2.68368e-05
2.71671e-05
2.74958e-05
2.78228e-05
2.81487e-05
2.84745e-05
2.88002e-05
2.91259e-05
2.94516e-05
2.97777e-05
3.01044e-05
3.04314e-05
3.07592e-05
3.10889e-05
3.14203e-05
3.1754e-05
3.20916e-05
3.24335e-05
3.27814e-05
3.31366e-05
3.35002e-05
3.38745e-05
3.42614e-05
3.46629e-05
3.50812e-05
3.55181e-05
3.59748e-05
3.64527e-05
3.69531e-05
3.7477e-05
3.80264e-05
3.86044e-05
3.92183e-05
3.98795e-05
4.06114e-05
4.13791e-05
4.32678e-05
4.8247e-05
4.92597e-05
5.42686e-05
7.39602e-05
8.89409e-05
0.000117545
0.000174656
0.000241421
7.13593e-06
1.07432e-05
1.1175e-05
1.15677e-05
1.19703e-05
1.23794e-05
1.27941e-05
1.32136e-05
1.36371e-05
1.40641e-05
1.44938e-05
1.49254e-05
1.53585e-05
1.57923e-05
1.62264e-05
1.666e-05
1.70924e-05
1.75231e-05
1.79515e-05
1.8377e-05
1.8799e-05
1.92168e-05
1.96302e-05
2.00387e-05
2.04419e-05
2.08393e-05
2.12307e-05
2.1616e-05
2.19948e-05
2.23671e-05
2.27328e-05
2.3092e-05
2.34445e-05
2.37909e-05
2.41315e-05
2.44663e-05
2.47959e-05
2.51202e-05
2.54401e-05
2.57559e-05
2.60685e-05
2.63784e-05
2.66862e-05
2.69928e-05
2.72987e-05
2.76046e-05
2.79108e-05
2.82176e-05
2.85253e-05
2.88336e-05
2.91428e-05
2.94533e-05
2.9765e-05
3.00784e-05
3.03939e-05
3.07118e-05
3.10326e-05
3.13574e-05
3.16871e-05
3.20232e-05
3.23666e-05
3.2719e-05
3.30822e-05
3.34578e-05
3.38482e-05
3.42548e-05
3.46798e-05
3.51246e-05
3.55903e-05
3.60788e-05
3.65908e-05
3.71275e-05
3.76929e-05
3.82943e-05
3.89402e-05
3.96509e-05
4.03941e-05
4.25198e-05
4.67685e-05
4.78703e-05
5.32605e-05
6.96985e-05
8.70747e-05
0.000116828
0.00017125
0.000231332
7.87943e-06
1.10941e-05
1.15261e-05
1.19127e-05
1.23081e-05
1.27089e-05
1.31137e-05
1.35223e-05
1.39337e-05
1.43471e-05
1.47621e-05
1.51779e-05
1.55936e-05
1.60092e-05
1.64238e-05
1.68366e-05
1.72478e-05
1.76561e-05
1.8061e-05
1.84623e-05
1.88592e-05
1.92514e-05
1.96385e-05
2.00202e-05
2.03963e-05
2.07662e-05
2.11297e-05
2.1487e-05
2.1838e-05
2.21823e-05
2.25201e-05
2.28518e-05
2.3177e-05
2.34962e-05
2.38099e-05
2.41185e-05
2.44221e-05
2.47213e-05
2.50168e-05
2.53086e-05
2.55978e-05
2.58852e-05
2.61711e-05
2.64567e-05
2.67425e-05
2.70288e-05
2.7316e-05
2.76046e-05
2.78947e-05
2.81863e-05
2.848e-05
2.87753e-05
2.90723e-05
2.93716e-05
2.96732e-05
2.9978e-05
3.02863e-05
3.0599e-05
3.0917e-05
3.12412e-05
3.15729e-05
3.19143e-05
3.22663e-05
3.26305e-05
3.30092e-05
3.34043e-05
3.38177e-05
3.42509e-05
3.47044e-05
3.51806e-05
3.56802e-05
3.62045e-05
3.67568e-05
3.73452e-05
3.7975e-05
3.86639e-05
3.93909e-05
4.17009e-05
4.54137e-05
4.66373e-05
5.22501e-05
6.65115e-05
8.59314e-05
0.000114137
0.000163275
0.000219543
8.64745e-06
1.14573e-05
1.1886e-05
1.22643e-05
1.26499e-05
1.30397e-05
1.34325e-05
1.38277e-05
1.42244e-05
1.46219e-05
1.50199e-05
1.54174e-05
1.58136e-05
1.62084e-05
1.66014e-05
1.69917e-05
1.73789e-05
1.77627e-05
1.81424e-05
1.85178e-05
1.88882e-05
1.92531e-05
1.96127e-05
1.99666e-05
2.03145e-05
2.0656e-05
2.09911e-05
2.13201e-05
2.16426e-05
2.19586e-05
2.22684e-05
2.25723e-05
2.28701e-05
2.31626e-05
2.34499e-05
2.37326e-05
2.40112e-05
2.42858e-05
2.45572e-05
2.48261e-05
2.5093e-05
2.53583e-05
2.56234e-05
2.58888e-05
2.61549e-05
2.64224e-05
2.66918e-05
2.69631e-05
2.72367e-05
2.75126e-05
2.77909e-05
2.80714e-05
2.83546e-05
2.86405e-05
2.89291e-05
2.92212e-05
2.95174e-05
2.98183e-05
3.01246e-05
3.04377e-05
3.07585e-05
3.10887e-05
3.14293e-05
3.17822e-05
3.21497e-05
3.25332e-05
3.29347e-05
3.3356e-05
3.37976e-05
3.42611e-05
3.4748e-05
3.52599e-05
3.57991e-05
3.63748e-05
3.69879e-05
3.76539e-05
3.83686e-05
4.08066e-05
4.41474e-05
4.54915e-05
5.11875e-05
6.37445e-05
8.51529e-05
0.000110696
0.000154111
0.000206101
9.45469e-06
1.18266e-05
1.22537e-05
1.26209e-05
1.29942e-05
1.33705e-05
1.37486e-05
1.41275e-05
1.45068e-05
1.48856e-05
1.52636e-05
1.56403e-05
1.60146e-05
1.63865e-05
1.67554e-05
1.71208e-05
1.74826e-05
1.78399e-05
1.81928e-05
1.85406e-05
1.88829e-05
1.92197e-05
1.95507e-05
1.98755e-05
2.01944e-05
2.05071e-05
2.08134e-05
2.11136e-05
2.14075e-05
2.16952e-05
2.19772e-05
2.22535e-05
2.25243e-05
2.27904e-05
2.30521e-05
2.33095e-05
2.35635e-05
2.38145e-05
2.40627e-05
2.43092e-05
2.45546e-05
2.47993e-05
2.50442e-05
2.52902e-05
2.55379e-05
2.57878e-05
2.60401e-05
2.6295e-05
2.65529e-05
2.68138e-05
2.70776e-05
2.73443e-05
2.76143e-05
2.78873e-05
2.81635e-05
2.84434e-05
2.87281e-05
2.90177e-05
2.93127e-05
2.96149e-05
2.9925e-05
3.02442e-05
3.0574e-05
3.09159e-05
3.12722e-05
3.16443e-05
3.20341e-05
3.24432e-05
3.28722e-05
3.33233e-05
3.37979e-05
3.42967e-05
3.48224e-05
3.53852e-05
3.59815e-05
3.66248e-05
3.73234e-05
3.98402e-05
4.29052e-05
4.43515e-05
5.00331e-05
6.13326e-05
8.49492e-05
0.000106823
0.000145297
0.000192264
1.0276e-05
1.22097e-05
1.26271e-05
1.29803e-05
1.33383e-05
1.36981e-05
1.40581e-05
1.4418e-05
1.47771e-05
1.51349e-05
1.54905e-05
1.58435e-05
1.61934e-05
1.654e-05
1.6883e-05
1.72214e-05
1.75556e-05
1.7885e-05
1.82092e-05
1.8528e-05
1.88412e-05
1.91485e-05
1.94499e-05
1.97453e-05
2.00348e-05
2.0318e-05
2.05952e-05
2.08665e-05
2.1132e-05
2.13919e-05
2.16463e-05
2.18956e-05
2.214e-05
2.23804e-05
2.26171e-05
2.28503e-05
2.30806e-05
2.33088e-05
2.35352e-05
2.37602e-05
2.39848e-05
2.421e-05
2.44361e-05
2.46636e-05
2.4894e-05
2.51271e-05
2.53632e-05
2.56027e-05
2.58459e-05
2.60927e-05
2.6343e-05
2.65966e-05
2.6854e-05
2.7115e-05
2.73794e-05
2.76481e-05
2.79214e-05
2.82e-05
2.84845e-05
2.87759e-05
2.90751e-05
2.93837e-05
2.97029e-05
3.00343e-05
3.03794e-05
3.074e-05
3.11182e-05
3.15149e-05
3.19315e-05
3.23702e-05
3.28316e-05
3.3317e-05
3.38293e-05
3.43776e-05
3.49565e-05
3.55808e-05
3.62538e-05
3.88041e-05
4.16915e-05
4.32063e-05
4.88326e-05
5.89787e-05
8.27517e-05
0.000103087
0.000136666
0.000178537
1.11436e-05
1.25984e-05
1.30042e-05
1.33398e-05
1.36794e-05
1.40194e-05
1.43585e-05
1.46965e-05
1.50324e-05
1.53657e-05
1.56962e-05
1.60232e-05
1.63461e-05
1.66653e-05
1.69801e-05
1.72898e-05
1.75947e-05
1.78946e-05
1.8189e-05
1.84778e-05
1.87609e-05
1.90381e-05
1.93093e-05
1.95747e-05
1.98345e-05
2.00883e-05
2.03365e-05
2.05794e-05
2.08167e-05
2.10488e-05
2.12763e-05
2.14994e-05
2.17185e-05
2.19339e-05
2.21463e-05
2.23563e-05
2.25642e-05
2.27705e-05
2.2976e-05
2.31809e-05
2.33863e-05
2.3593e-05
2.38013e-05
2.4012e-05
2.42259e-05
2.44432e-05
2.46642e-05
2.48894e-05
2.51188e-05
2.53523e-05
2.55899e-05
2.58311e-05
2.60766e-05
2.63261e-05
2.65795e-05
2.68372e-05
2.70997e-05
2.73678e-05
2.7642e-05
2.7923e-05
2.8212e-05
2.85102e-05
2.88189e-05
2.91395e-05
2.94735e-05
2.98226e-05
3.01885e-05
3.05731e-05
3.09772e-05
3.14028e-05
3.18509e-05
3.23225e-05
3.28212e-05
3.33538e-05
3.39156e-05
3.4525e-05
3.51581e-05
3.77054e-05
4.05037e-05
4.20674e-05
4.75728e-05
5.64666e-05
7.70371e-05
9.87109e-05
0.00012868
0.000164885
1.20242e-05
1.29903e-05
1.338e-05
1.36951e-05
1.40127e-05
1.43297e-05
1.46449e-05
1.49577e-05
1.52675e-05
1.55739e-05
1.58767e-05
1.61753e-05
1.64693e-05
1.67586e-05
1.70433e-05
1.73227e-05
1.75972e-05
1.78662e-05
1.81298e-05
1.83877e-05
1.864e-05
1.88866e-05
1.91275e-05
1.93629e-05
1.9593e-05
1.98178e-05
2.00373e-05
2.0252e-05
2.0462e-05
2.06673e-05
2.08687e-05
2.10666e-05
2.12611e-05
2.14528e-05
2.16422e-05
2.183e-05
2.20165e-05
2.22023e-05
2.23881e-05
2.25743e-05
2.27616e-05
2.29508e-05
2.31424e-05
2.33373e-05
2.3536e-05
2.37388e-05
2.39459e-05
2.41578e-05
2.43743e-05
2.45952e-05
2.4821e-05
2.50508e-05
2.5285e-05
2.55235e-05
2.57662e-05
2.60134e-05
2.62659e-05
2.65239e-05
2.6788e-05
2.70592e-05
2.73379e-05
2.76256e-05
2.7924e-05
2.82337e-05
2.85565e-05
2.88941e-05
2.9248e-05
2.96201e-05
3.00112e-05
3.04231e-05
3.08573e-05
3.13151e-05
3.17999e-05
3.23156e-05
3.2861e-05
3.34589e-05
3.40394e-05
3.6546e-05
3.93561e-05
4.09672e-05
4.62505e-05
5.37565e-05
7.03114e-05
9.46497e-05
0.000121058
0.000151048
1.29297e-05
1.33832e-05
1.37502e-05
1.4041e-05
1.43335e-05
1.46242e-05
1.49119e-05
1.51968e-05
1.54779e-05
1.57549e-05
1.60275e-05
1.62953e-05
1.65583e-05
1.68166e-05
1.70698e-05
1.73175e-05
1.75602e-05
1.77977e-05
1.80297e-05
1.82563e-05
1.84774e-05
1.86933e-05
1.8904e-05
1.91098e-05
1.93107e-05
1.95069e-05
1.96984e-05
1.98857e-05
2.0069e-05
2.02488e-05
2.04252e-05
2.05987e-05
2.07698e-05
2.09391e-05
2.11068e-05
2.12738e-05
2.14404e-05
2.16071e-05
2.17744e-05
2.1943e-05
2.21136e-05
2.22867e-05
2.24631e-05
2.26433e-05
2.28278e-05
2.30171e-05
2.32112e-05
2.34108e-05
2.36154e-05
2.38249e-05
2.40393e-05
2.42584e-05
2.44819e-05
2.471e-05
2.49427e-05
2.51801e-05
2.54228e-05
2.56709e-05
2.5925e-05
2.61862e-05
2.64551e-05
2.67327e-05
2.70205e-05
2.73193e-05
2.76307e-05
2.79565e-05
2.82984e-05
2.86576e-05
2.90356e-05
2.94341e-05
2.98542e-05
3.0298e-05
3.07691e-05
3.12677e-05
3.17972e-05
3.23842e-05
3.29031e-05
3.5338e-05
3.82721e-05
3.99209e-05
4.48514e-05
5.10271e-05
6.48944e-05
9.08847e-05
0.000113464
0.000137252
1.38396e-05
1.37697e-05
1.41119e-05
1.4375e-05
1.46385e-05
1.48996e-05
1.51572e-05
1.54109e-05
1.56604e-05
1.59053e-05
1.61457e-05
1.63813e-05
1.66115e-05
1.68367e-05
1.7057e-05
1.72721e-05
1.74824e-05
1.76876e-05
1.78876e-05
1.80828e-05
1.8273e-05
1.84584e-05
1.86394e-05
1.88158e-05
1.89881e-05
1.91564e-05
1.9321e-05
1.94821e-05
1.96401e-05
1.97953e-05
1.99479e-05
2.00985e-05
2.02476e-05
2.03956e-05
2.05431e-05
2.06907e-05
2.08388e-05
2.09877e-05
2.1138e-05
2.12904e-05
2.14456e-05
2.1604e-05
2.17661e-05
2.19328e-05
2.21045e-05
2.22812e-05
2.24634e-05
2.26514e-05
2.28448e-05
2.30437e-05
2.32476e-05
2.34563e-05
2.36702e-05
2.38885e-05
2.41116e-05
2.43394e-05
2.45724e-05
2.4811e-05
2.50556e-05
2.53071e-05
2.55662e-05
2.58336e-05
2.61106e-05
2.63984e-05
2.66986e-05
2.70126e-05
2.73422e-05
2.76887e-05
2.80538e-05
2.8439e-05
2.88454e-05
2.92756e-05
2.97333e-05
3.02158e-05
3.07308e-05
3.13046e-05
3.17588e-05
3.41162e-05
3.72168e-05
3.88898e-05
4.33816e-05
4.84421e-05
6.08377e-05
8.74501e-05
0.000105955
0.00012378
1.47805e-05
1.41592e-05
1.44687e-05
1.46993e-05
1.49298e-05
1.51573e-05
1.53809e-05
1.56005e-05
1.58155e-05
1.60259e-05
1.62315e-05
1.64321e-05
1.66278e-05
1.6819e-05
1.70055e-05
1.7187e-05
1.73639e-05
1.75364e-05
1.77045e-05
1.78682e-05
1.80278e-05
1.81833e-05
1.83349e-05
1.84829e-05
1.86275e-05
1.87689e-05
1.89076e-05
1.90437e-05
1.91774e-05
1.93094e-05
1.94397e-05
1.95689e-05
1.96976e-05
1.9826e-05
1.99546e-05
2.00842e-05
2.0215e-05
2.03476e-05
2.04823e-05
2.06199e-05
2.0761e-05
2.09058e-05
2.10549e-05
2.12092e-05
2.1369e-05
2.15343e-05
2.17056e-05
2.18828e-05
2.20659e-05
2.22547e-05
2.24488e-05
2.26481e-05
2.28525e-05
2.30615e-05
2.32754e-05
2.3494e-05
2.37177e-05
2.39471e-05
2.41824e-05
2.44244e-05
2.46735e-05
2.49309e-05
2.51976e-05
2.54746e-05
2.57638e-05
2.60664e-05
2.63839e-05
2.67182e-05
2.70708e-05
2.74431e-05
2.78366e-05
2.82541e-05
2.86993e-05
2.91671e-05
2.96695e-05
3.02254e-05
3.06211e-05
3.2903e-05
3.61772e-05
3.78439e-05
4.18828e-05
4.60667e-05
5.75466e-05
8.368e-05
9.82389e-05
0.000111062
1.57754e-05
1.45571e-05
1.48277e-05
1.50201e-05
1.52123e-05
1.54015e-05
1.55868e-05
1.57681e-05
1.59451e-05
1.61177e-05
1.6286e-05
1.64499e-05
1.66094e-05
1.67647e-05
1.6916e-05
1.7063e-05
1.72064e-05
1.73461e-05
1.74821e-05
1.76145e-05
1.77437e-05
1.78698e-05
1.79929e-05
1.81134e-05
1.82313e-05
1.83472e-05
1.84612e-05
1.85735e-05
1.86846e-05
1.87947e-05
1.89042e-05
1.90134e-05
1.9123e-05
1.92333e-05
1.93446e-05
1.94576e-05
1.95728e-05
1.96904e-05
1.9811e-05
1.99352e-05
2.00633e-05
2.01958e-05
2.03332e-05
2.04762e-05
2.06251e-05
2.07799e-05
2.0941e-05
2.11085e-05
2.12821e-05
2.14614e-05
2.16464e-05
2.18367e-05
2.20323e-05
2.22327e-05
2.24378e-05
2.26476e-05
2.28626e-05
2.30829e-05
2.33093e-05
2.35422e-05
2.37819e-05
2.40298e-05
2.42868e-05
2.45537e-05
2.48323e-05
2.51242e-05
2.54307e-05
2.57535e-05
2.60946e-05
2.64551e-05
2.68371e-05
2.72431e-05
2.76771e-05
2.8132e-05
2.8624e-05
2.91546e-05
2.95074e-05
3.17004e-05
3.52164e-05
3.68084e-05
4.03904e-05
4.38854e-05
5.46015e-05
7.96469e-05
9.05538e-05
9.94545e-05
1.68116e-05
1.4969e-05
1.51893e-05
1.53366e-05
1.54843e-05
1.56299e-05
1.57722e-05
1.59111e-05
1.60467e-05
1.61788e-05
1.63072e-05
1.64323e-05
1.65539e-05
1.66723e-05
1.67877e-05
1.68999e-05
1.70095e-05
1.71163e-05
1.72206e-05
1.73224e-05
1.74221e-05
1.75195e-05
1.76151e-05
1.77093e-05
1.7802e-05
1.78935e-05
1.79843e-05
1.80745e-05
1.81644e-05
1.82542e-05
1.83445e-05
1.84354e-05
1.85275e-05
1.86212e-05
1.87169e-05
1.88149e-05
1.89158e-05
1.90201e-05
1.9128e-05
1.92399e-05
1.93564e-05
1.94778e-05
1.96046e-05
1.97375e-05
1.98766e-05
2.00221e-05
2.0174e-05
2.03326e-05
2.04974e-05
2.06682e-05
2.08449e-05
2.1027e-05
2.12144e-05
2.14067e-05
2.16038e-05
2.18055e-05
2.20124e-05
2.22246e-05
2.24428e-05
2.26673e-05
2.28986e-05
2.31379e-05
2.33859e-05
2.36438e-05
2.39131e-05
2.41953e-05
2.44922e-05
2.48052e-05
2.51361e-05
2.54864e-05
2.58585e-05
2.62544e-05
2.66786e-05
2.71227e-05
2.76061e-05
2.8103e-05
2.84326e-05
3.0522e-05
3.43038e-05
3.57645e-05
3.89143e-05
4.18431e-05
5.18559e-05
7.53052e-05
8.32239e-05
8.9203e-05
1.78438e-05
1.53679e-05
1.55299e-05
1.56268e-05
1.57256e-05
1.58236e-05
1.59199e-05
1.60141e-05
1.61062e-05
1.61959e-05
1.62835e-05
1.63691e-05
1.64523e-05
1.65337e-05
1.66134e-05
1.66914e-05
1.6768e-05
1.68431e-05
1.69168e-05
1.69892e-05
1.70608e-05
1.71314e-05
1.72013e-05
1.72707e-05
1.73399e-05
1.74091e-05
1.74785e-05
1.75484e-05
1.7619e-05
1.76906e-05
1.77635e-05
1.7838e-05
1.79144e-05
1.79934e-05
1.80751e-05
1.81599e-05
1.82483e-05
1.83408e-05
1.84374e-05
1.85386e-05
1.86449e-05
1.87567e-05
1.88743e-05
1.89984e-05
1.91289e-05
1.92661e-05
1.94101e-05
1.95608e-05
1.97181e-05
1.98815e-05
2.00508e-05
2.02257e-05
2.04059e-05
2.0591e-05
2.0781e-05
2.09758e-05
2.11757e-05
2.13808e-05
2.15919e-05
2.18092e-05
2.20333e-05
2.22652e-05
2.25058e-05
2.27562e-05
2.30177e-05
2.32919e-05
2.35805e-05
2.3885e-05
2.42072e-05
2.45491e-05
2.49126e-05
2.53002e-05
2.57154e-05
2.61498e-05
2.6626e-05
2.70814e-05
2.74062e-05
2.93912e-05
3.3381e-05
3.4708e-05
3.74604e-05
3.98886e-05
4.92866e-05
6.99452e-05
7.61768e-05
8.04694e-05
1.87209e-05
1.57021e-05
1.57989e-05
1.58439e-05
1.58931e-05
1.59433e-05
1.59936e-05
1.60436e-05
1.6093e-05
1.61419e-05
1.61904e-05
1.62383e-05
1.62853e-05
1.63319e-05
1.63785e-05
1.64246e-05
1.64706e-05
1.65164e-05
1.65622e-05
1.66081e-05
1.66542e-05
1.67007e-05
1.67476e-05
1.67952e-05
1.68436e-05
1.68931e-05
1.69438e-05
1.6996e-05
1.70497e-05
1.71054e-05
1.71633e-05
1.72237e-05
1.7287e-05
1.73534e-05
1.74232e-05
1.74969e-05
1.75749e-05
1.76574e-05
1.77445e-05
1.78369e-05
1.79349e-05
1.80386e-05
1.81485e-05
1.82653e-05
1.83888e-05
1.85192e-05
1.86565e-05
1.88007e-05
1.89516e-05
1.9109e-05
1.92723e-05
1.94412e-05
1.96157e-05
1.97951e-05
1.99793e-05
2.01684e-05
2.03626e-05
2.0562e-05
2.07673e-05
2.09788e-05
2.11972e-05
2.14233e-05
2.16579e-05
2.19021e-05
2.21574e-05
2.24249e-05
2.27064e-05
2.30038e-05
2.33189e-05
2.36533e-05
2.40092e-05
2.43891e-05
2.4796e-05
2.52214e-05
2.56893e-05
2.60978e-05
2.64291e-05
2.83219e-05
3.24612e-05
3.36575e-05
3.60289e-05
3.80085e-05
4.68593e-05
6.43048e-05
6.9462e-05
7.28428e-05
1.93086e-05
1.5893e-05
1.59278e-05
1.59252e-05
1.59297e-05
1.59373e-05
1.59466e-05
1.59575e-05
1.59695e-05
1.59826e-05
1.59968e-05
1.60121e-05
1.60282e-05
1.60451e-05
1.60631e-05
1.60822e-05
1.61023e-05
1.61235e-05
1.61459e-05
1.61696e-05
1.61947e-05
1.6221e-05
1.62489e-05
1.62786e-05
1.631e-05
1.63433e-05
1.63789e-05
1.64168e-05
1.64571e-05
1.65001e-05
1.65461e-05
1.65953e-05
1.6648e-05
1.67045e-05
1.67651e-05
1.68301e-05
1.68999e-05
1.69748e-05
1.70548e-05
1.71404e-05
1.72319e-05
1.73296e-05
1.74338e-05
1.7545e-05
1.76632e-05
1.77884e-05
1.79208e-05
1.80602e-05
1.82064e-05
1.83591e-05
1.8518e-05
1.86826e-05
1.88526e-05
1.90277e-05
1.92078e-05
1.93927e-05
1.95826e-05
1.97776e-05
1.99785e-05
2.01856e-05
2.03995e-05
2.06208e-05
2.08504e-05
2.10894e-05
2.13391e-05
2.16008e-05
2.18763e-05
2.21672e-05
2.24753e-05
2.28024e-05
2.3151e-05
2.35235e-05
2.39219e-05
2.43382e-05
2.47942e-05
2.5155e-05
2.54948e-05
2.73243e-05
3.15053e-05
3.25964e-05
3.46037e-05
3.62068e-05
4.45285e-05
5.91014e-05
6.34378e-05
6.61839e-05
1.94872e-05
1.58731e-05
1.58581e-05
1.58178e-05
1.57873e-05
1.57617e-05
1.57396e-05
1.57203e-05
1.57037e-05
1.56896e-05
1.56778e-05
1.56683e-05
1.56608e-05
1.56553e-05
1.56519e-05
1.56506e-05
1.56515e-05
1.56544e-05
1.56595e-05
1.56668e-05
1.56762e-05
1.56878e-05
1.57018e-05
1.57183e-05
1.57374e-05
1.57592e-05
1.57839e-05
1.58115e-05
1.58422e-05
1.58762e-05
1.59139e-05
1.59553e-05
1.60007e-05
1.60504e-05
1.61047e-05
1.61639e-05
1.62282e-05
1.62978e-05
1.63731e-05
1.64543e-05
1.65417e-05
1.66355e-05
1.67359e-05
1.68435e-05
1.69582e-05
1.70801e-05
1.72092e-05
1.73455e-05
1.74886e-05
1.76383e-05
1.77942e-05
1.79559e-05
1.81229e-05
1.82951e-05
1.8472e-05
1.86538e-05
1.88405e-05
1.90321e-05
1.92294e-05
1.94328e-05
1.96428e-05
1.98599e-05
2.0085e-05
2.03191e-05
2.05635e-05
2.08194e-05
2.10886e-05
2.13725e-05
2.16734e-05
2.1993e-05
2.23337e-05
2.26981e-05
2.30872e-05
2.34931e-05
2.39328e-05
2.42448e-05
2.45924e-05
2.63941e-05
3.04543e-05
3.14979e-05
3.31793e-05
3.4496e-05
4.23621e-05
5.45184e-05
5.81345e-05
6.05451e-05
1.92446e-05
1.56121e-05
1.55659e-05
1.55006e-05
1.54476e-05
1.54008e-05
1.53585e-05
1.53202e-05
1.52854e-05
1.5254e-05
1.52258e-05
1.52006e-05
1.51782e-05
1.51587e-05
1.5142e-05
1.51282e-05
1.51171e-05
1.51087e-05
1.51031e-05
1.51002e-05
1.51001e-05
1.51028e-05
1.51083e-05
1.51169e-05
1.51287e-05
1.51436e-05
1.51618e-05
1.51834e-05
1.52086e-05
1.52376e-05
1.52705e-05
1.53075e-05
1.53489e-05
1.5395e-05
1.5446e-05
1.55021e-05
1.55636e-05
1.56307e-05
1.57037e-05
1.57827e-05
1.58681e-05
1.596e-05
1.60586e-05
1.61643e-05
1.62773e-05
1.63975e-05
1.6525e-05
1.66595e-05
1.68009e-05
1.69488e-05
1.71028e-05
1.72624e-05
1.74273e-05
1.75974e-05
1.77719e-05
1.7951e-05
1.81349e-05
1.83236e-05
1.85175e-05