/*--------------------------------*- C++ -*----------------------------------*\
  =========                 |
  \\      /  F ield         | OpenFOAM: The Open Source CFD Toolbox
   \\    /   O peration     | Website:  https://openfoam.org
    \\  /    A nd           | Version:  9
     \\/     M anipulation  |
\*---------------------------------------------------------------------------*/
FoamFile
{
    format      ascii;
    class       volScalarField;
    location    "3000";
    object      nut;
}
// * * * * * * * * * * * * * * * * * * * * * * * * * * * * * * * * * * * * * //

dimensions      [0 2 -1 0 0 0 0];

internalField   nonuniform List<scalar> 
13617
(
1.95544e-07
6.92135e-07
6.93161e-07
6.94577e-07
6.96235e-07
6.98008e-07
6.99856e-07
7.01761e-07
7.03716e-07
7.0571e-07
7.07735e-07
7.09788e-07
7.11862e-07
7.1396e-07
7.16079e-07
7.18211e-07
7.20364e-07
7.22531e-07
7.24702e-07
7.26875e-07
7.29052e-07
7.31225e-07
7.33394e-07
7.35557e-07
7.37709e-07
7.39847e-07
7.41969e-07
7.44074e-07
7.46161e-07
7.48229e-07
7.50277e-07
7.52303e-07
7.54309e-07
7.56297e-07
7.5827e-07
7.60225e-07
7.62165e-07
7.64092e-07
7.66007e-07
7.67913e-07
7.69812e-07
7.71702e-07
7.73588e-07
7.75487e-07
7.77392e-07
7.79299e-07
7.81209e-07
7.83111e-07
7.8499e-07
7.86837e-07
7.88641e-07
7.90393e-07
7.92083e-07
7.93703e-07
7.95259e-07
7.96752e-07
7.98184e-07
7.99564e-07
8.00906e-07
8.0223e-07
8.03558e-07
8.04915e-07
8.06333e-07
8.07847e-07
8.09489e-07
8.11283e-07
8.13248e-07
8.15383e-07
8.17689e-07
8.20173e-07
8.22865e-07
8.25819e-07
8.29077e-07
8.3267e-07
8.36937e-07
8.43271e-07
8.54188e-07
8.72208e-07
9.02022e-07
9.4896e-07
1.01659e-06
1.16364e-06
1.21883e-06
1.45543e-06
2.18184e-06
3.18686e-06
1.39132e-07
6.92521e-07
6.93658e-07
6.95073e-07
6.96731e-07
6.98502e-07
7.00347e-07
7.02248e-07
7.04195e-07
7.06182e-07
7.082e-07
7.10243e-07
7.12308e-07
7.14395e-07
7.16502e-07
7.18623e-07
7.20761e-07
7.22913e-07
7.25068e-07
7.27225e-07
7.29384e-07
7.31539e-07
7.33689e-07
7.35833e-07
7.37964e-07
7.40082e-07
7.42184e-07
7.44267e-07
7.46332e-07
7.48377e-07
7.504e-07
7.52404e-07
7.54387e-07
7.56354e-07
7.58303e-07
7.60235e-07
7.62153e-07
7.64057e-07
7.65951e-07
7.67835e-07
7.69714e-07
7.71584e-07
7.73452e-07
7.75332e-07
7.77221e-07
7.79114e-07
7.81009e-07
7.82897e-07
7.84765e-07
7.86602e-07
7.88397e-07
7.9014e-07
7.9182e-07
7.93433e-07
7.94983e-07
7.96469e-07
7.97893e-07
7.99266e-07
8.006e-07
8.01918e-07
8.03239e-07
8.04587e-07
8.05994e-07
8.07496e-07
8.09124e-07
8.10904e-07
8.12855e-07
8.14979e-07
8.17273e-07
8.19742e-07
8.22415e-07
8.25338e-07
8.28553e-07
8.3209e-07
8.36228e-07
8.42296e-07
8.52575e-07
8.69065e-07
8.99588e-07
9.57724e-07
1.02389e-06
1.27247e-06
1.30096e-06
1.45407e-06
2.16993e-06
3.00718e-06
2.0893e-07
6.9225e-07
6.93508e-07
6.94935e-07
6.96608e-07
6.98393e-07
7.0025e-07
7.02163e-07
7.04121e-07
7.06117e-07
7.08146e-07
7.10198e-07
7.12272e-07
7.14367e-07
7.16481e-07
7.1861e-07
7.20754e-07
7.22912e-07
7.25073e-07
7.27235e-07
7.29398e-07
7.31557e-07
7.3371e-07
7.35856e-07
7.37989e-07
7.40109e-07
7.42213e-07
7.44297e-07
7.46361e-07
7.48405e-07
7.50428e-07
7.52429e-07
7.54412e-07
7.56376e-07
7.58323e-07
7.60253e-07
7.62169e-07
7.6407e-07
7.65962e-07
7.67844e-07
7.6972e-07
7.71587e-07
7.73456e-07
7.75335e-07
7.77224e-07
7.79119e-07
7.81014e-07
7.82903e-07
7.84773e-07
7.86613e-07
7.88413e-07
7.90158e-07
7.91841e-07
7.93458e-07
7.9501e-07
7.965e-07
7.97927e-07
7.99301e-07
8.00636e-07
8.01953e-07
8.03273e-07
8.04621e-07
8.06027e-07
8.07523e-07
8.09143e-07
8.10918e-07
8.12866e-07
8.14987e-07
8.17275e-07
8.19739e-07
8.22401e-07
8.25303e-07
8.2849e-07
8.31996e-07
8.36057e-07
8.41895e-07
8.51428e-07
8.66483e-07
9.01007e-07
9.7227e-07
1.02308e-06
1.3251e-06
1.33889e-06
1.46161e-06
2.16247e-06
2.97766e-06
2.84827e-07
6.91229e-07
6.92662e-07
6.94121e-07
6.95827e-07
6.97646e-07
6.99535e-07
7.0148e-07
7.03468e-07
7.05496e-07
7.07556e-07
7.09639e-07
7.11743e-07
7.13868e-07
7.16013e-07
7.18171e-07
7.20345e-07
7.22531e-07
7.2472e-07
7.26912e-07
7.29103e-07
7.31288e-07
7.33467e-07
7.35639e-07
7.37796e-07
7.39939e-07
7.42068e-07
7.44175e-07
7.46261e-07
7.48325e-07
7.50367e-07
7.52388e-07
7.54389e-07
7.56372e-07
7.58335e-07
7.60282e-07
7.62213e-07
7.64131e-07
7.66036e-07
7.67932e-07
7.69821e-07
7.71703e-07
7.73587e-07
7.75481e-07
7.77382e-07
7.79291e-07
7.81201e-07
7.83103e-07
7.84987e-07
7.86841e-07
7.88654e-07
7.90412e-07
7.92108e-07
7.93735e-07
7.95296e-07
7.96794e-07
7.98228e-07
7.99608e-07
8.00946e-07
8.02263e-07
8.03584e-07
8.04932e-07
8.06335e-07
8.07827e-07
8.09441e-07
8.11207e-07
8.13147e-07
8.15259e-07
8.1754e-07
8.19993e-07
8.2264e-07
8.25518e-07
8.28673e-07
8.32152e-07
8.3616e-07
8.41768e-07
8.50553e-07
8.64412e-07
9.046e-07
9.80381e-07
1.02452e-06
1.35244e-06
1.35469e-06
1.48403e-06
2.21296e-06
3.06457e-06
3.47088e-07
6.89816e-07
6.91302e-07
6.92809e-07
6.94564e-07
6.96432e-07
6.9837e-07
7.00363e-07
7.02401e-07
7.04477e-07
7.06585e-07
7.08716e-07
7.10868e-07
7.13041e-07
7.15232e-07
7.17439e-07
7.1966e-07
7.2189e-07
7.24125e-07
7.26364e-07
7.28599e-07
7.30828e-07
7.33051e-07
7.35262e-07
7.37461e-07
7.39644e-07
7.41811e-07
7.43957e-07
7.46079e-07
7.48179e-07
7.50253e-07
7.52306e-07
7.5434e-07
7.56352e-07
7.58343e-07
7.60318e-07
7.62277e-07
7.6422e-07
7.66149e-07
7.68069e-07
7.6998e-07
7.71885e-07
7.73792e-07
7.75707e-07
7.77627e-07
7.79557e-07
7.81487e-07
7.83406e-07
7.85308e-07
7.8718e-07
7.8901e-07
7.90782e-07
7.92491e-07
7.94133e-07
7.95705e-07
7.97208e-07
7.98649e-07
8.00034e-07
8.01374e-07
8.02688e-07
8.04004e-07
8.05347e-07
8.06744e-07
8.08226e-07
8.09827e-07
8.11578e-07
8.13502e-07
8.15599e-07
8.17864e-07
8.20302e-07
8.22931e-07
8.25784e-07
8.28909e-07
8.32368e-07
8.36347e-07
8.4175e-07
8.49887e-07
8.6279e-07
9.09786e-07
9.78229e-07
1.02481e-06
1.39193e-06
1.38831e-06
1.52676e-06
2.30159e-06
3.21118e-06
3.95348e-07
6.88e-07
6.89637e-07
6.91205e-07
6.93022e-07
6.94951e-07
6.9695e-07
6.99004e-07
7.01102e-07
7.03239e-07
7.05407e-07
7.07598e-07
7.09809e-07
7.12042e-07
7.14292e-07
7.16558e-07
7.18835e-07
7.21123e-07
7.23414e-07
7.25709e-07
7.27998e-07
7.30281e-07
7.32555e-07
7.34817e-07
7.37065e-07
7.39296e-07
7.4151e-07
7.43701e-07
7.45867e-07
7.48008e-07
7.50122e-07
7.52212e-07
7.54282e-07
7.56329e-07
7.58353e-07
7.60359e-07
7.62348e-07
7.64321e-07
7.66278e-07
7.68222e-07
7.70158e-07
7.72086e-07
7.74017e-07
7.75952e-07
7.77892e-07
7.79842e-07
7.8179e-07
7.83727e-07
7.85645e-07
7.87533e-07
7.89377e-07
7.91163e-07
7.92884e-07
7.94535e-07
7.96113e-07
7.9762e-07
7.99063e-07
8.0045e-07
8.01788e-07
8.03098e-07
8.04407e-07
8.0574e-07
8.07128e-07
8.08599e-07
8.10186e-07
8.11922e-07
8.13829e-07
8.15912e-07
8.18168e-07
8.20599e-07
8.23222e-07
8.2607e-07
8.29192e-07
8.32661e-07
8.36657e-07
8.41956e-07
8.49624e-07
8.62001e-07
9.16882e-07
9.71585e-07
1.02415e-06
1.4484e-06
1.44162e-06
1.583e-06
2.43012e-06
3.41426e-06
4.3375e-07
6.86007e-07
6.87792e-07
6.89431e-07
6.91319e-07
6.9332e-07
6.9539e-07
6.97514e-07
6.99683e-07
7.0189e-07
7.04126e-07
7.06386e-07
7.08667e-07
7.10967e-07
7.13284e-07
7.15616e-07
7.17958e-07
7.20309e-07
7.22664e-07
7.2502e-07
7.27369e-07
7.29711e-07
7.32042e-07
7.34358e-07
7.36659e-07
7.38942e-07
7.41204e-07
7.43442e-07
7.45654e-07
7.47838e-07
7.49994e-07
7.52123e-07
7.5423e-07
7.56311e-07
7.58367e-07
7.60404e-07
7.62424e-07
7.64425e-07
7.66407e-07
7.68376e-07
7.70333e-07
7.72284e-07
7.74235e-07
7.76189e-07
7.78146e-07
7.80112e-07
7.82076e-07
7.84028e-07
7.8596e-07
7.8786e-07
7.89713e-07
7.91509e-07
7.93238e-07
7.94896e-07
7.96478e-07
7.97987e-07
7.99431e-07
8.00816e-07
8.02153e-07
8.0346e-07
8.04763e-07
8.06092e-07
8.07474e-07
8.0894e-07
8.10521e-07
8.12252e-07
8.14154e-07
8.16238e-07
8.18503e-07
8.20952e-07
8.23601e-07
8.26479e-07
8.2964e-07
8.33167e-07
8.37244e-07
8.42573e-07
8.49982e-07
8.62176e-07
9.26755e-07
9.67595e-07
1.02387e-06
1.50236e-06
1.49126e-06
1.63789e-06
2.59751e-06
3.64703e-06
4.65613e-07
6.83743e-07
6.85795e-07
6.87518e-07
6.89487e-07
6.91569e-07
6.9372e-07
6.95925e-07
6.98175e-07
7.00461e-07
7.02775e-07
7.05113e-07
7.0747e-07
7.09845e-07
7.12236e-07
7.14641e-07
7.17055e-07
7.19476e-07
7.219e-07
7.24321e-07
7.26735e-07
7.29139e-07
7.3153e-07
7.33903e-07
7.3626e-07
7.38596e-07
7.40909e-07
7.43194e-07
7.45453e-07
7.47682e-07
7.49879e-07
7.52047e-07
7.5419e-07
7.56305e-07
7.58393e-07
7.6046e-07
7.62508e-07
7.64534e-07
7.66541e-07
7.68532e-07
7.70511e-07
7.72481e-07
7.74451e-07
7.76421e-07
7.78395e-07
7.80374e-07
7.82351e-07
7.84317e-07
7.86263e-07
7.88174e-07
7.90037e-07
7.9184e-07
7.93576e-07
7.95241e-07
7.96828e-07
7.98341e-07
7.99786e-07
8.01175e-07
8.02515e-07
8.03825e-07
8.05132e-07
8.06463e-07
8.0785e-07
8.09323e-07
8.10914e-07
8.12657e-07
8.14576e-07
8.16683e-07
8.18982e-07
8.21477e-07
8.24183e-07
8.27129e-07
8.30369e-07
8.33997e-07
8.38212e-07
8.4367e-07
8.50934e-07
8.63296e-07
9.42504e-07
9.7021e-07
1.02282e-06
1.55874e-06
1.5291e-06
1.69638e-06
2.7448e-06
3.83465e-06
4.90311e-07
6.81366e-07
6.83635e-07
6.8545e-07
6.87515e-07
6.89689e-07
6.91933e-07
6.94229e-07
6.9657e-07
6.98946e-07
7.01347e-07
7.03773e-07
7.06216e-07
7.08675e-07
7.11147e-07
7.13633e-07
7.16126e-07
7.18623e-07
7.21122e-07
7.23613e-07
7.26096e-07
7.28567e-07
7.3102e-07
7.33456e-07
7.35871e-07
7.38263e-07
7.40627e-07
7.42962e-07
7.45268e-07
7.47542e-07
7.49782e-07
7.51988e-07
7.54167e-07
7.56316e-07
7.58436e-07
7.60533e-07
7.62608e-07
7.64659e-07
7.6669e-07
7.68703e-07
7.70702e-07
7.72691e-07
7.74679e-07
7.76668e-07
7.78659e-07
7.80653e-07
7.82645e-07
7.84625e-07
7.86585e-07
7.88509e-07
7.90383e-07
7.92198e-07
7.93943e-07
7.95616e-07
7.97214e-07
7.98736e-07
8.00189e-07
8.01586e-07
8.02937e-07
8.0426e-07
8.05579e-07
8.06926e-07
8.0833e-07
8.09821e-07
8.11436e-07
8.13208e-07
8.15161e-07
8.1731e-07
8.19662e-07
8.22224e-07
8.2501e-07
8.28048e-07
8.31393e-07
8.35153e-07
8.39531e-07
8.4516e-07
8.5224e-07
8.65998e-07
9.62206e-07
9.76778e-07
1.02376e-06
1.57891e-06
1.5471e-06
1.75865e-06
2.83299e-06
3.9374e-06
5.10621e-07
6.78824e-07
6.81293e-07
6.83218e-07
6.8539e-07
6.87671e-07
6.90019e-07
6.9242e-07
6.94865e-07
6.97342e-07
6.99842e-07
7.02366e-07
7.04904e-07
7.07455e-07
7.10019e-07
7.12593e-07
7.15172e-07
7.17753e-07
7.20331e-07
7.22899e-07
7.25456e-07
7.27997e-07
7.30518e-07
7.33018e-07
7.35495e-07
7.37945e-07
7.40363e-07
7.42749e-07
7.45104e-07
7.47424e-07
7.49707e-07
7.51953e-07
7.54169e-07
7.56351e-07
7.58503e-07
7.60629e-07
7.62731e-07
7.64807e-07
7.66862e-07
7.68898e-07
7.70917e-07
7.72925e-07
7.74932e-07
7.7694e-07
7.78951e-07
7.80962e-07
7.82971e-07
7.84968e-07
7.86944e-07
7.88884e-07
7.90774e-07
7.92603e-07
7.94362e-07
7.96049e-07
7.97661e-07
7.99197e-07
8.00664e-07
8.02075e-07
8.03443e-07
8.04785e-07
8.06125e-07
8.07493e-07
8.08921e-07
8.10442e-07
8.1209e-07
8.13898e-07
8.15894e-07
8.18096e-07
8.20511e-07
8.23148e-07
8.26025e-07
8.29166e-07
8.3263e-07
8.36528e-07
8.41077e-07
8.46876e-07
8.5369e-07
8.71034e-07
9.7666e-07
9.80386e-07
1.0274e-06
1.53967e-06
1.56216e-06
1.8466e-06
2.87765e-06
3.97584e-06
5.26617e-07
6.76122e-07
6.78769e-07
6.8082e-07
6.83117e-07
6.85519e-07
6.87987e-07
6.90504e-07
6.93065e-07
6.95655e-07
6.98268e-07
7.009e-07
7.03544e-07
7.06198e-07
7.08861e-07
7.11531e-07
7.14204e-07
7.16875e-07
7.1954e-07
7.2219e-07
7.24825e-07
7.27441e-07
7.30033e-07
7.32603e-07
7.35143e-07
7.37653e-07
7.40127e-07
7.42565e-07
7.44969e-07
7.47335e-07
7.49661e-07
7.51948e-07
7.54199e-07
7.56414e-07
7.58598e-07
7.60754e-07
7.62882e-07
7.64982e-07
7.6706e-07
7.69119e-07
7.71158e-07
7.73185e-07
7.75211e-07
7.77239e-07
7.7927e-07
7.81299e-07
7.83326e-07
7.85343e-07
7.87337e-07
7.89294e-07
7.91201e-07
7.93048e-07
7.94824e-07
7.96526e-07
7.98155e-07
7.9971e-07
8.01194e-07
8.02622e-07
8.04009e-07
8.05373e-07
8.06736e-07
8.08128e-07
8.09582e-07
8.11134e-07
8.12816e-07
8.14663e-07
8.16705e-07
8.1896e-07
8.2144e-07
8.24156e-07
8.27125e-07
8.30374e-07
8.33962e-07
8.38009e-07
8.42732e-07
8.48674e-07
8.55248e-07
8.78169e-07
9.79969e-07
9.77892e-07
1.03296e-06
1.46256e-06
1.58434e-06
1.93142e-06
2.89214e-06
3.995e-06
5.40048e-07
6.73104e-07
6.7607e-07
6.78265e-07
6.80702e-07
6.83241e-07
6.85844e-07
6.88495e-07
6.91185e-07
6.93902e-07
6.96639e-07
6.99391e-07
7.02152e-07
7.04919e-07
7.0769e-07
7.10467e-07
7.1324e-07
7.16007e-07
7.18765e-07
7.21502e-07
7.2422e-07
7.26914e-07
7.29581e-07
7.32221e-07
7.34827e-07
7.37398e-07
7.39929e-07
7.42421e-07
7.44873e-07
7.47283e-07
7.49652e-07
7.51978e-07
7.54262e-07
7.56509e-07
7.58723e-07
7.60907e-07
7.63059e-07
7.65181e-07
7.67279e-07
7.69358e-07
7.71417e-07
7.73464e-07
7.75506e-07
7.77553e-07
7.79602e-07
7.8165e-07
7.83695e-07
7.85729e-07
7.87741e-07
7.89715e-07
7.9164e-07
7.93505e-07
7.95299e-07
7.97018e-07
7.98663e-07
8.00235e-07
8.01737e-07
8.03182e-07
8.04588e-07
8.05971e-07
8.07356e-07
8.0877e-07
8.10249e-07
8.11829e-07
8.13543e-07
8.15427e-07
8.17512e-07
8.1982e-07
8.22366e-07
8.25163e-07
8.2823e-07
8.31595e-07
8.35316e-07
8.39525e-07
8.44428e-07
8.50497e-07
8.57011e-07
8.86335e-07
9.75944e-07
9.72969e-07
1.03995e-06
1.39309e-06
1.59955e-06
2.01418e-06
2.92419e-06
3.98844e-06
5.50539e-07
6.69978e-07
6.73177e-07
6.75539e-07
6.78139e-07
6.80837e-07
6.83595e-07
6.86395e-07
6.89231e-07
6.92092e-07
6.94967e-07
6.97852e-07
7.00741e-07
7.03632e-07
7.06522e-07
7.09413e-07
7.12295e-07
7.15165e-07
7.1802e-07
7.2085e-07
7.23656e-07
7.2643e-07
7.29175e-07
7.31887e-07
7.34559e-07
7.37191e-07
7.39779e-07
7.42323e-07
7.44822e-07
7.47275e-07
7.49684e-07
7.52047e-07
7.54362e-07
7.56638e-07
7.58878e-07
7.61086e-07
7.63259e-07
7.654e-07
7.67516e-07
7.69612e-07
7.71688e-07
7.73749e-07
7.75806e-07
7.77868e-07
7.79932e-07
7.81996e-07
7.84057e-07
7.86108e-07
7.88135e-07
7.90124e-07
7.92065e-07
7.93945e-07
7.95756e-07
7.97492e-07
7.99152e-07
8.00738e-07
8.02256e-07
8.03716e-07
8.05136e-07
8.06536e-07
8.0794e-07
8.09375e-07
8.10877e-07
8.12482e-07
8.14228e-07
8.16148e-07
8.18276e-07
8.20638e-07
8.23254e-07
8.2614e-07
8.29315e-07
8.32809e-07
8.36681e-07
8.41079e-07
8.46174e-07
8.52375e-07
8.59066e-07
8.94659e-07
9.71542e-07
9.70473e-07
1.04857e-06
1.35007e-06
1.62048e-06
2.07622e-06
2.99079e-06
3.99074e-06
5.59016e-07
6.6653e-07
6.7007e-07
6.72628e-07
6.75417e-07
6.78299e-07
6.81233e-07
6.84205e-07
6.87207e-07
6.90229e-07
6.93259e-07
6.96291e-07
6.99323e-07
7.02349e-07
7.05369e-07
7.08382e-07
7.11381e-07
7.14361e-07
7.17318e-07
7.20246e-07
7.23142e-07
7.26001e-07
7.28824e-07
7.31608e-07
7.34347e-07
7.3704e-07
7.39684e-07
7.42278e-07
7.44822e-07
7.47316e-07
7.49761e-07
7.52158e-07
7.54502e-07
7.56802e-07
7.59064e-07
7.6129e-07
7.63481e-07
7.65638e-07
7.67767e-07
7.69876e-07
7.71965e-07
7.74037e-07
7.76104e-07
7.78177e-07
7.80252e-07
7.82328e-07
7.84402e-07
7.86465e-07
7.88503e-07
7.90506e-07
7.9246e-07
7.94354e-07
7.96179e-07
7.97928e-07
7.996e-07
8.01199e-07
8.0273e-07
8.04203e-07
8.05637e-07
8.07052e-07
8.08473e-07
8.0993e-07
8.11455e-07
8.13087e-07
8.14864e-07
8.16824e-07
8.19003e-07
8.2143e-07
8.24126e-07
8.27114e-07
8.30413e-07
8.34058e-07
8.38105e-07
8.42727e-07
8.48029e-07
8.54373e-07
8.61481e-07
9.02494e-07
9.70136e-07
9.72172e-07
1.05875e-06
1.32891e-06
1.65832e-06
2.10549e-06
2.97813e-06
3.95092e-06
5.65605e-07
6.62876e-07
6.66766e-07
6.69549e-07
6.72555e-07
6.75646e-07
6.78781e-07
6.81946e-07
6.85133e-07
6.88333e-07
6.91533e-07
6.94728e-07
6.97914e-07
7.01089e-07
7.04246e-07
7.07392e-07
7.10513e-07
7.13608e-07
7.16673e-07
7.19702e-07
7.2269e-07
7.25635e-07
7.28538e-07
7.31393e-07
7.34197e-07
7.36949e-07
7.39647e-07
7.4229e-07
7.44876e-07
7.47406e-07
7.49884e-07
7.52309e-07
7.54677e-07
7.56998e-07
7.59278e-07
7.61519e-07
7.63724e-07
7.65893e-07
7.6803e-07
7.70148e-07
7.72246e-07
7.74325e-07
7.76399e-07
7.78478e-07
7.8056e-07
7.82644e-07
7.84727e-07
7.86798e-07
7.88846e-07
7.9086e-07
7.92824e-07
7.94728e-07
7.96565e-07
7.98327e-07
8.0001e-07
8.0162e-07
8.03163e-07
8.04649e-07
8.06096e-07
8.07528e-07
8.0897e-07
8.10452e-07
8.12005e-07
8.1367e-07
8.15489e-07
8.17499e-07
8.19739e-07
8.22242e-07
8.25036e-07
8.28142e-07
8.31587e-07
8.35406e-07
8.39656e-07
8.44541e-07
8.50076e-07
8.56562e-07
8.64237e-07
9.09663e-07
9.71215e-07
9.76847e-07
1.06954e-06
1.31783e-06
1.70663e-06
2.12149e-06
2.93674e-06
3.87417e-06
5.71251e-07
6.58996e-07
6.63362e-07
6.66389e-07
6.69631e-07
6.72947e-07
6.76301e-07
6.79674e-07
6.83062e-07
6.86454e-07
6.89836e-07
6.93203e-07
6.96553e-07
6.99882e-07
7.03187e-07
7.06466e-07
7.09716e-07
7.12929e-07
7.16103e-07
7.19234e-07
7.22314e-07
7.25346e-07
7.28326e-07
7.31249e-07
7.34116e-07
7.36924e-07
7.39672e-07
7.42359e-07
7.44983e-07
7.47547e-07
7.50053e-07
7.52501e-07
7.5489e-07
7.57227e-07
7.59521e-07
7.61771e-07
7.63985e-07
7.66163e-07
7.68307e-07
7.70428e-07
7.72529e-07
7.74612e-07
7.7669e-07
7.78772e-07
7.80857e-07
7.82948e-07
7.85036e-07
7.87113e-07
7.89168e-07
7.91191e-07
7.93164e-07
7.95078e-07
7.96926e-07
7.98698e-07
8.00393e-07
8.02015e-07
8.03572e-07
8.05074e-07
8.0654e-07
8.07992e-07
8.09461e-07
8.10974e-07
8.12566e-07
8.14276e-07
8.16147e-07
8.18221e-07
8.20539e-07
8.23135e-07
8.26042e-07
8.29287e-07
8.32897e-07
8.36912e-07
8.4139e-07
8.46562e-07
8.52352e-07
8.59018e-07
8.67238e-07
9.16122e-07
9.7347e-07
9.82675e-07
1.08028e-06
1.31499e-06
1.77013e-06
2.12847e-06
2.89261e-06
3.78982e-06
5.75705e-07
6.55187e-07
6.59935e-07
6.6322e-07
6.66709e-07
6.70264e-07
6.73847e-07
6.7744e-07
6.81038e-07
6.8463e-07
6.88202e-07
6.91748e-07
6.95268e-07
6.98757e-07
7.02211e-07
7.05629e-07
7.09008e-07
7.1234e-07
7.15623e-07
7.18854e-07
7.22025e-07
7.2514e-07
7.28194e-07
7.31183e-07
7.34109e-07
7.36968e-07
7.39761e-07
7.42488e-07
7.45145e-07
7.47738e-07
7.50266e-07
7.52732e-07
7.55137e-07
7.57488e-07
7.59791e-07
7.62048e-07
7.64267e-07
7.66449e-07
7.68596e-07
7.70718e-07
7.72818e-07
7.74902e-07
7.76982e-07
7.79064e-07
7.81151e-07
7.83244e-07
7.85336e-07
7.87417e-07
7.8948e-07
7.91511e-07
7.93494e-07
7.95418e-07
7.97277e-07
7.99062e-07
8.00771e-07
8.02409e-07
8.03984e-07
8.05507e-07
8.06998e-07
8.08479e-07
8.09982e-07
8.11537e-07
8.13178e-07
8.14944e-07
8.1688e-07
8.19031e-07
8.21441e-07
8.24145e-07
8.2718e-07
8.30577e-07
8.34365e-07
8.38592e-07
8.4332e-07
8.48773e-07
8.54832e-07
8.6178e-07
8.70337e-07
9.2175e-07
9.77001e-07
9.89199e-07
1.09213e-06
1.31303e-06
1.79388e-06
2.13887e-06
2.84468e-06
3.69974e-06
5.79493e-07
6.51117e-07
6.56333e-07
6.59905e-07
6.63671e-07
6.67492e-07
6.71328e-07
6.75164e-07
6.78994e-07
6.82804e-07
6.86581e-07
6.90322e-07
6.94023e-07
6.97682e-07
7.01293e-07
7.04856e-07
7.08368e-07
7.11824e-07
7.15218e-07
7.1855e-07
7.21812e-07
7.25009e-07
7.28134e-07
7.31186e-07
7.34168e-07
7.37075e-07
7.39909e-07
7.42672e-07
7.45358e-07
7.47974e-07
7.5052e-07
7.53e-07
7.55418e-07
7.57777e-07
7.60085e-07
7.62345e-07
7.64565e-07
7.66748e-07
7.68896e-07
7.71015e-07
7.73113e-07
7.75198e-07
7.77277e-07
7.79359e-07
7.81447e-07
7.83542e-07
7.85637e-07
7.87724e-07
7.89794e-07
7.91834e-07
7.93829e-07
7.95766e-07
7.97638e-07
7.99438e-07
8.01165e-07
8.02824e-07
8.04422e-07
8.05973e-07
8.07496e-07
8.09014e-07
8.10558e-07
8.12163e-07
8.13861e-07
8.15693e-07
8.17703e-07
8.1994e-07
8.22447e-07
8.25267e-07
8.28436e-07
8.31988e-07
8.35958e-07
8.40398e-07
8.45382e-07
8.51092e-07
8.57428e-07
8.64784e-07
8.73279e-07
9.26407e-07
9.81645e-07
9.96578e-07
1.10433e-06
1.30623e-06
1.73733e-06
2.1369e-06
2.80534e-06
3.59278e-06
5.8079e-07
6.46287e-07
6.52067e-07
6.56016e-07
6.60143e-07
6.64301e-07
6.68457e-07
6.72597e-07
6.7671e-07
6.80785e-07
6.84808e-07
6.88779e-07
6.92692e-07
6.96546e-07
7.00337e-07
7.04063e-07
7.07726e-07
7.11316e-07
7.14832e-07
7.18273e-07
7.21632e-07
7.24914e-07
7.28114e-07
7.3123e-07
7.34268e-07
7.37224e-07
7.40098e-07
7.42893e-07
7.45606e-07
7.48244e-07
7.50805e-07
7.53296e-07
7.55723e-07
7.58089e-07
7.60401e-07
7.62662e-07
7.64881e-07
7.67061e-07
7.69207e-07
7.71323e-07
7.73418e-07
7.75499e-07
7.77578e-07
7.79659e-07
7.81748e-07
7.83846e-07
7.85946e-07
7.8804e-07
7.90118e-07
7.92169e-07
7.94177e-07
7.9613e-07
7.98019e-07
7.99837e-07
8.01585e-07
8.03269e-07
8.04895e-07
8.06477e-07
8.08035e-07
8.09593e-07
8.11182e-07
8.12838e-07
8.14594e-07
8.16491e-07
8.18573e-07
8.20892e-07
8.23494e-07
8.26421e-07
8.29714e-07
8.3341e-07
8.37549e-07
8.4219e-07
8.4742e-07
8.53349e-07
8.59953e-07
8.67811e-07
8.75771e-07
9.29763e-07
9.87656e-07
1.00552e-06
1.11578e-06
1.29286e-06
1.65033e-06
2.14076e-06
2.766e-06
3.45667e-06
5.79112e-07
6.40183e-07
6.46674e-07
6.51155e-07
6.55775e-07
6.60395e-07
6.64978e-07
6.69515e-07
6.73995e-07
6.78407e-07
6.82741e-07
6.86997e-07
6.91171e-07
6.95261e-07
6.99267e-07
7.03187e-07
7.07023e-07
7.10769e-07
7.14424e-07
7.17988e-07
7.21454e-07
7.24829e-07
7.28111e-07
7.31297e-07
7.34394e-07
7.37399e-07
7.40314e-07
7.43141e-07
7.45881e-07
7.48539e-07
7.51115e-07
7.53614e-07
7.56047e-07
7.58417e-07
7.6073e-07
7.62991e-07
7.65206e-07
7.67382e-07
7.69523e-07
7.71634e-07
7.73725e-07
7.75803e-07
7.77879e-07
7.79958e-07
7.82047e-07
7.84146e-07
7.8625e-07
7.88351e-07
7.90439e-07
7.925e-07
7.94521e-07
7.96488e-07
7.98393e-07
8.00229e-07
8.01997e-07
8.03702e-07
8.05351e-07
8.0696e-07
8.08548e-07
8.10139e-07
8.11766e-07
8.13462e-07
8.15263e-07
8.1721e-07
8.19348e-07
8.21728e-07
8.24401e-07
8.27411e-07
8.30803e-07
8.34617e-07
8.38899e-07
8.43714e-07
8.49163e-07
8.55278e-07
8.62131e-07
8.70519e-07
8.77479e-07
9.3162e-07
9.95498e-07
1.01637e-06
1.12511e-06
1.27646e-06
1.58644e-06
2.1486e-06
2.71565e-06
3.29385e-06
5.75322e-07
6.33098e-07
6.40533e-07
6.45675e-07
6.50907e-07
6.56086e-07
6.61184e-07
6.66193e-07
6.71104e-07
6.75907e-07
6.80599e-07
6.85179e-07
6.89644e-07
6.93996e-07
6.98237e-07
7.02366e-07
7.06387e-07
7.10298e-07
7.14097e-07
7.17786e-07
7.21361e-07
7.24828e-07
7.28189e-07
7.31441e-07
7.34591e-07
7.37641e-07
7.40591e-07
7.43444e-07
7.46204e-07
7.48875e-07
7.51458e-07
7.53962e-07
7.56394e-07
7.5876e-07
7.61067e-07
7.63321e-07
7.65527e-07
7.6769e-07
7.6982e-07
7.71921e-07
7.74002e-07
7.76072e-07
7.78138e-07
7.80209e-07
7.82293e-07
7.84387e-07
7.86488e-07
7.88589e-07
7.90677e-07
7.92742e-07
7.94767e-07
7.96739e-07
7.9865e-07
8.00492e-07
8.02267e-07
8.03979e-07
8.05636e-07
8.07253e-07
8.08851e-07
8.10455e-07
8.12093e-07
8.13802e-07
8.15619e-07
8.17584e-07
8.19745e-07
8.22152e-07
8.24859e-07
8.27916e-07
8.3137e-07
8.35268e-07
8.3966e-07
8.4462e-07
8.50265e-07
8.56543e-07
8.63645e-07
8.72512e-07
8.7814e-07
9.32355e-07
1.00408e-06
1.02776e-06
1.13162e-06
1.26082e-06
1.54971e-06
2.16139e-06
2.6552e-06
3.11173e-06
5.7383e-07
6.27134e-07
6.35492e-07
6.41269e-07
6.47078e-07
6.52782e-07
6.58357e-07
6.638e-07
6.69099e-07
6.74253e-07
6.7926e-07
6.84118e-07
6.88831e-07
6.93402e-07
6.97836e-07
7.02132e-07
7.06295e-07
7.1033e-07
7.14234e-07
7.18008e-07
7.21655e-07
7.25178e-07
7.28582e-07
7.31868e-07
7.35041e-07
7.38104e-07
7.41059e-07
7.43911e-07
7.46663e-07
7.49321e-07
7.51889e-07
7.54373e-07
7.56784e-07
7.59125e-07
7.61405e-07
7.63633e-07
7.6581e-07
7.67943e-07
7.70043e-07
7.72117e-07
7.74172e-07
7.76215e-07
7.78254e-07
7.80301e-07
7.8236e-07
7.84432e-07
7.86512e-07
7.88593e-07
7.90662e-07
7.92708e-07
7.94714e-07
7.96668e-07
7.98559e-07
8.00383e-07
8.02137e-07
8.03825e-07
8.05458e-07
8.07051e-07
8.08624e-07
8.10203e-07
8.11815e-07
8.13499e-07
8.15292e-07
8.17236e-07
8.19379e-07
8.21776e-07
8.24482e-07
8.27553e-07
8.31043e-07
8.35003e-07
8.3949e-07
8.44585e-07
8.50428e-07
8.56884e-07
8.64271e-07
8.73487e-07
8.77745e-07
9.32187e-07
1.01276e-06
1.03846e-06
1.13604e-06
1.24784e-06
1.52809e-06
2.16294e-06
2.57755e-06
2.92424e-06
5.80142e-07
6.25496e-07
6.34545e-07
6.40685e-07
6.46811e-07
6.52794e-07
6.58614e-07
6.6427e-07
6.6975e-07
6.75057e-07
6.80194e-07
6.85157e-07
6.89952e-07
6.94587e-07
6.99065e-07
7.03388e-07
7.07566e-07
7.11602e-07
7.15495e-07
7.19247e-07
7.22863e-07
7.26347e-07
7.29705e-07
7.3294e-07
7.36055e-07
7.39058e-07
7.41949e-07
7.44733e-07
7.47418e-07
7.50006e-07
7.52502e-07
7.54917e-07
7.57256e-07
7.59525e-07
7.61734e-07
7.63892e-07
7.66001e-07
7.68066e-07
7.701e-07
7.7211e-07
7.74102e-07
7.76084e-07
7.78063e-07
7.8005e-07
7.82051e-07
7.84065e-07
7.86088e-07
7.88114e-07
7.90128e-07
7.92118e-07
7.94069e-07
7.95966e-07
7.97799e-07
7.99563e-07
8.01256e-07
8.02881e-07
8.04449e-07
8.05977e-07
8.07486e-07
8.09001e-07
8.10552e-07
8.12175e-07
8.13913e-07
8.15807e-07
8.17911e-07
8.2028e-07
8.22976e-07
8.2606e-07
8.2959e-07
8.33626e-07
8.38232e-07
8.435e-07
8.49583e-07
8.5628e-07
8.64041e-07
8.73402e-07
8.76639e-07
9.31008e-07
1.02312e-06
1.04892e-06
1.13949e-06
1.23776e-06
1.51218e-06
2.15439e-06
2.48759e-06
2.74215e-06
5.98188e-07
6.31411e-07
6.40572e-07
6.46594e-07
6.52574e-07
6.58404e-07
6.64062e-07
6.69545e-07
6.74845e-07
6.79968e-07
6.84913e-07
6.8968e-07
6.94277e-07
6.9871e-07
7.02984e-07
7.07103e-07
7.11076e-07
7.14907e-07
7.18596e-07
7.22146e-07
7.25564e-07
7.28849e-07
7.32012e-07
7.35057e-07
7.37986e-07
7.40805e-07
7.43516e-07
7.46127e-07
7.48643e-07
7.51065e-07
7.53402e-07
7.55662e-07
7.5785e-07
7.59972e-07
7.62038e-07
7.64058e-07
7.66034e-07
7.67971e-07
7.69879e-07
7.71768e-07
7.73641e-07
7.75507e-07
7.77374e-07
7.79251e-07
7.81144e-07
7.83052e-07
7.8497e-07
7.86892e-07
7.88804e-07
7.90693e-07
7.92543e-07
7.94341e-07
7.96074e-07
7.97739e-07
7.99332e-07
8.00859e-07
8.0233e-07
8.03765e-07
8.05185e-07
8.06616e-07
8.08091e-07
8.09649e-07
8.1133e-07
8.13184e-07
8.15264e-07
8.17633e-07
8.20354e-07
8.23495e-07
8.27121e-07
8.31298e-07
8.36098e-07
8.41623e-07
8.48028e-07
8.55076e-07
8.6334e-07
8.72604e-07
8.75436e-07
9.29316e-07
1.03443e-06
1.05867e-06
1.1425e-06
1.22966e-06
1.49881e-06
2.13336e-06
2.39391e-06
2.57483e-06
6.28956e-07
6.46275e-07
6.54888e-07
6.60234e-07
6.6554e-07
6.70712e-07
6.75733e-07
6.80598e-07
6.85296e-07
6.8983e-07
6.94208e-07
6.98424e-07
7.02484e-07
7.06398e-07
7.10171e-07
7.13804e-07
7.17309e-07
7.20689e-07
7.23941e-07
7.27069e-07
7.30081e-07
7.32977e-07
7.35764e-07
7.38446e-07
7.41028e-07
7.43513e-07
7.45904e-07
7.48207e-07
7.50429e-07
7.52568e-07
7.54634e-07
7.56634e-07
7.58571e-07
7.60452e-07
7.62287e-07
7.64084e-07
7.65848e-07
7.67582e-07
7.69294e-07
7.70993e-07
7.72683e-07
7.74371e-07
7.76066e-07
7.77777e-07
7.79509e-07
7.81261e-07
7.83026e-07
7.84799e-07
7.86567e-07
7.88316e-07
7.90031e-07
7.91697e-07
7.93306e-07
7.94849e-07
7.96327e-07
7.97745e-07
7.99116e-07
8.00459e-07
8.018e-07
8.03168e-07
8.04595e-07
8.06123e-07
8.07795e-07
8.09662e-07
8.11784e-07
8.14224e-07
8.17053e-07
8.20341e-07
8.24158e-07
8.28578e-07
8.33682e-07
8.39577e-07
8.46407e-07
8.53923e-07
8.62818e-07
8.7174e-07
8.74821e-07
9.28163e-07
1.04522e-06
1.06781e-06
1.14548e-06
1.22245e-06
1.48779e-06
2.07711e-06
2.29486e-06
2.43168e-06
6.68925e-07
6.69075e-07
6.76464e-07
6.80655e-07
6.84829e-07
6.88915e-07
6.9289e-07
6.96746e-07
7.00474e-07
7.04076e-07
7.07557e-07
7.10912e-07
7.14143e-07
7.17262e-07
7.20272e-07
7.23171e-07
7.25973e-07
7.28677e-07
7.31282e-07
7.33793e-07
7.36213e-07
7.38543e-07
7.40788e-07
7.42953e-07
7.45041e-07
7.47053e-07
7.48993e-07
7.50867e-07
7.52678e-07
7.54425e-07
7.56116e-07
7.57758e-07
7.59355e-07
7.60911e-07
7.62434e-07
7.63933e-07
7.65414e-07
7.66878e-07
7.68331e-07
7.69783e-07
7.71236e-07
7.72695e-07
7.74173e-07
7.75678e-07
7.77212e-07
7.78774e-07
7.80359e-07
7.81959e-07
7.83565e-07
7.85162e-07
7.86734e-07
7.8827e-07
7.89759e-07
7.91196e-07
7.92579e-07
7.93916e-07
7.95221e-07
7.96516e-07
7.97829e-07
7.99191e-07
8.00639e-07
8.02212e-07
8.03956e-07
8.05926e-07
8.08183e-07
8.10795e-07
8.13832e-07
8.1737e-07
8.21485e-07
8.26254e-07
8.31766e-07
8.38133e-07
8.45483e-07
8.53558e-07
8.63128e-07
8.71505e-07
8.75309e-07
9.28483e-07
1.05623e-06
1.07716e-06
1.14865e-06
1.21591e-06
1.47848e-06
2.00347e-06
2.19222e-06
2.30434e-06
7.12028e-07
6.96272e-07
7.01999e-07
7.04765e-07
7.07558e-07
7.10323e-07
7.13026e-07
7.15658e-07
7.18214e-07
7.20688e-07
7.23088e-07
7.25407e-07
7.27647e-07
7.29813e-07
7.3191e-07
7.33938e-07
7.35903e-07
7.37806e-07
7.39647e-07
7.41427e-07
7.43149e-07
7.44813e-07
7.46421e-07
7.4798e-07
7.49487e-07
7.50949e-07
7.52364e-07
7.53738e-07
7.55071e-07
7.56365e-07
7.57625e-07
7.58855e-07
7.6006e-07
7.61244e-07
7.62414e-07
7.63577e-07
7.6474e-07
7.65903e-07
7.67071e-07
7.68251e-07
7.69447e-07
7.70664e-07
7.71914e-07
7.73204e-07
7.74538e-07
7.75913e-07
7.77325e-07
7.78767e-07
7.80229e-07
7.81697e-07
7.83158e-07
7.84599e-07
7.86012e-07
7.8739e-07
7.88732e-07
7.90049e-07
7.91353e-07
7.9267e-07
7.94031e-07
7.95468e-07
7.97019e-07
7.98723e-07
8.00629e-07
8.0279e-07
8.05271e-07
8.0814e-07
8.1147e-07
8.1534e-07
8.19827e-07
8.25017e-07
8.31005e-07
8.37906e-07
8.45825e-07
8.54497e-07
8.64679e-07
8.72404e-07
8.77098e-07
9.31072e-07
1.06641e-06
1.0864e-06
1.15158e-06
1.21021e-06
1.46953e-06
1.93324e-06
2.09799e-06
2.19174e-06
7.50623e-07
7.22953e-07
7.26913e-07
7.28255e-07
7.29673e-07
7.31124e-07
7.32568e-07
7.3399e-07
7.35387e-07
7.36751e-07
7.38083e-07
7.39381e-07
7.4064e-07
7.41867e-07
7.43066e-07
7.44233e-07
7.45374e-07
7.46489e-07
7.47579e-07
7.48639e-07
7.49674e-07
7.50683e-07
7.51667e-07
7.52629e-07
7.5357e-07
7.54491e-07
7.55393e-07
7.56277e-07
7.57145e-07
7.57997e-07
7.58838e-07
7.5967e-07
7.60499e-07
7.61327e-07
7.62161e-07
7.63007e-07
7.6387e-07
7.64752e-07
7.65658e-07
7.66592e-07
7.67559e-07
7.68563e-07
7.69616e-07
7.70728e-07
7.71899e-07
7.73128e-07
7.74411e-07
7.75743e-07
7.77113e-07
7.78508e-07
7.79916e-07
7.81324e-07
7.82725e-07
7.84111e-07
7.85482e-07
7.86848e-07
7.88224e-07
7.89634e-07
7.91113e-07
7.92694e-07
7.94414e-07
7.96315e-07
7.98443e-07
8.00853e-07
8.03608e-07
8.06779e-07
8.10441e-07
8.14674e-07
8.19561e-07
8.25192e-07
8.31671e-07
8.3912e-07
8.47599e-07
8.56849e-07
8.67505e-07
8.74426e-07
8.80044e-07
9.36114e-07
1.07361e-06
1.09463e-06
1.15395e-06
1.20578e-06
1.46324e-06
1.87328e-06
2.01469e-06
2.09863e-06
7.78623e-07
7.4439e-07
7.46837e-07
7.47002e-07
7.47297e-07
7.47676e-07
7.48091e-07
7.48528e-07
7.48979e-07
7.49436e-07
7.499e-07
7.50364e-07
7.50824e-07
7.51287e-07
7.51754e-07
7.52223e-07
7.52693e-07
7.53166e-07
7.53641e-07
7.54117e-07
7.54592e-07
7.55067e-07
7.55542e-07
7.56021e-07
7.56501e-07
7.56983e-07
7.57469e-07
7.57958e-07
7.5845e-07
7.58947e-07
7.59452e-07
7.59967e-07
7.60498e-07
7.61047e-07
7.6162e-07
7.6222e-07
7.62855e-07
7.63527e-07
7.64239e-07
7.64995e-07
7.658e-07
7.6666e-07
7.67584e-07
7.68583e-07
7.69658e-07
7.70807e-07
7.7203e-07
7.73318e-07
7.74662e-07
7.76051e-07
7.77471e-07
7.7891e-07
7.8036e-07
7.81815e-07
7.83273e-07
7.84743e-07
7.86239e-07
7.8779e-07