/*--------------------------------*- C++ -*----------------------------------*\
  =========                 |
  \\      /  F ield         | OpenFOAM: The Open Source CFD Toolbox
   \\    /   O peration     | Website:  https://openfoam.org
    \\  /    A nd           | Version:  9
     \\/     M anipulation  |
\*---------------------------------------------------------------------------*/
FoamFile
{
    format      ascii;
    class       volScalarField;
    location    "3000";
    object      omega;
}
// * * * * * * * * * * * * * * * * * * * * * * * * * * * * * * * * * * * * * //

dimensions      [0 0 -1 0 0 0 0];

internalField   nonuniform List<scalar> 
13617
(
3.86786
10.7927
11.2906
11.8033
12.3328
12.8789
13.4418
14.0216
14.6178
15.2297
15.8574
16.5007
17.1588
17.8312
18.5174
19.2163
19.928
20.651
21.3846
22.1278
22.8797
23.6392
24.4054
25.1768
25.9529
26.7317
27.5128
28.2949
29.0767
29.8571
30.6353
31.4098
32.1797
32.9441
33.7024
34.4533
35.1963
35.9306
36.656
37.3716
38.0766
38.772
39.4567
40.1302
40.7931
41.4449
42.0859
42.7168
43.3374
43.9481
44.5487
45.1404
45.7237
46.2981
46.8648
47.4258
47.9803
48.5285
49.0718
49.6106
50.1473
50.6821
51.2145
51.7467
52.2804
52.8174
53.3585
53.9038
54.4555
55.0158
55.586
56.1689
56.7657
57.3799
58.0141
58.676
59.4136
60.3382
61.581
63.2435
65.4891
68.3789
72.2458
77.9523
83.9298
86.939
3.72551
11.0707
11.5793
12.0983
12.6338
13.1856
13.7536
14.3375
14.9368
15.5518
16.1816
16.8259
17.4843
18.1557
18.8398
19.5356
20.2423
20.9594
21.6857
22.4202
23.162
23.91
24.6629
25.4199
26.1796
26.9412
27.7034
28.4651
29.2253
29.9827
30.7363
31.4855
32.2289
32.9657
33.695
34.4166
35.1297
35.8336
36.5276
37.2116
37.8852
38.5484
39.2008
39.8422
40.4737
41.094
41.7039
42.3042
42.8949
43.4765
44.0493
44.6138
45.1704
45.7205
46.2643
46.8025
47.3354
47.8643
48.3898
48.9125
49.4335
49.9541
50.4755
50.9985
51.5239
52.053
52.5877
53.1293
53.6787
54.2374
54.8077
55.3906
55.9885
56.6047
57.2409
57.9036
58.6205
59.4721
60.5744
62.0362
64.3207
67.0244
70.899
76.9718
82.8488
85.6148
4.22124
11.3999
11.919
12.4439
12.9849
13.5416
14.1138
14.7011
15.3034
15.9197
16.5502
17.194
17.8503
18.5189
19.1988
19.8894
20.5893
21.2978
22.0143
22.7378
23.4668
24.2005
24.9378
25.6772
26.4184
27.1599
27.9005
28.6391
29.3749
30.1066
30.8336
31.5545
32.2689
32.9758
33.6746
34.3649
35.046
35.7173
36.3786
37.0296
37.67
38.2996
38.919
39.5279
40.1264
40.715
41.2933
41.862
42.4225
42.9744
43.5182
44.0551
44.5853
45.1099
45.6296
46.1447
46.6563
47.1649
47.6716
48.1772
48.682
49.1882
49.6966
50.2075
50.7225
51.2429
51.7698
52.3047
52.8486
53.4031
53.9695
54.5491
55.1442
55.7578
56.3923
57.0522
57.7533
58.5485
59.5339
60.8281
63.3292
65.98
69.785
75.7289
81.3712
84.0858
4.88968
11.7547
12.2855
12.816
13.362
13.923
14.4985
15.0885
15.6919
16.3091
16.9389
17.5808
18.2345
18.8987
19.5728
20.2559
20.9475
21.6465
22.3516
23.0618
23.7764
24.494
25.2135
25.9341
26.6544
27.3739
28.0909
28.8047
29.5143
30.2191
30.9179
31.6094
32.2938
32.97
33.6369
34.2949
34.9435
35.5815
36.2094
36.8269
37.4334
38.03
38.6162
39.1922
39.7581
40.3139
40.8611
41.3999
41.9303
42.4529
42.9686
43.4785
43.9829
44.4819
44.9771
45.4697
45.9595
46.448
46.9362
47.4243
47.9134
48.4048
48.899
49.398
49.9026
50.4131
50.9313
51.4584
51.996
52.5447
53.1052
53.6801
54.271
54.8799
55.5104
56.1678
56.8595
57.6182
58.5157
59.694
62.3061
64.9251
68.6054
74.0416
79.378
81.9043
5.6301
12.137
12.6738
13.2093
13.7595
14.3241
14.9022
15.4936
16.0979
16.714
17.3419
17.9809
18.6299
19.2881
19.9552
20.63
21.3112
21.998
22.6897
23.3854
24.0835
24.7832
25.4834
26.1829
26.8811
27.5766
28.2685
28.9563
29.6386
30.3147
30.9837
31.6451
32.2983
32.9424
33.5771
34.2022
34.8174
35.4219
36.0162
36.6001
37.1732
37.7364
38.2897
38.8332
39.3671
39.8915
40.4079
40.9162
41.4174
41.912
42.4001
42.883
43.3618
43.8372
44.31
44.7801
45.2491
45.7184
46.1883
46.659
47.1326
47.6094
48.0902
48.5769
49.0703
49.5706
50.0798
50.5983
51.1279
51.6702
52.2249
52.7939
53.3785
53.982
54.6073
55.2589
55.9414
56.6753
57.5065
58.624
61.1265
63.6133
67.144
72.0195
77.1686
79.4544
6.4062
12.5382
13.0834
13.6231
14.1769
14.7436
15.3232
15.9149
16.5183
17.1326
17.7571
18.3914
19.0342
19.685
20.3429
21.0067
21.6759
22.3493
23.0259
23.7045
24.3841
25.0637
25.7425
26.4196
27.0937
27.7638
28.429
29.0889
29.7423
30.3886
31.0268
31.6567
32.2777
32.8892
33.4908
34.0823
34.6635
35.2346
35.7954
36.3455
36.8851
37.4152
37.9358
38.4468
38.9492
39.4431
39.9291
40.4079
40.8807
41.3476
41.8098
42.2674
42.7217
43.1742
43.6245
44.0734
44.5227
44.9731
45.4252
45.8799
46.3383
46.8003
47.2681
47.7428
48.2249
48.7149
49.2144
49.7236
50.2448
50.7787
51.3254
51.8867
52.4641
53.0602
53.6767
54.3178
54.988
55.701
56.4783
57.5698
59.8572
62.0589
65.4494
70.0288
75.0341
76.9727
7.21969
12.9625
13.5149
14.0578
14.6137
15.1818
15.7615
16.3522
16.953
17.5634
18.183
18.8106
19.4454
20.0864
20.7333
21.3845
22.0392
22.6967
23.3558
24.0153
24.6745
25.3323
25.9877
26.6399
27.2879
27.9308
28.5677
29.198
29.8207
30.4355
31.042
31.6395
32.2272
32.8051
33.3729
33.9305
34.4779
35.0148
35.5416
36.0579
36.5643
37.0617
37.5501
38.0297
38.5009
38.9646
39.4216
39.8722
40.317
40.7573
41.1938
41.627
42.0585
42.4879
42.9166
43.3459
43.7763
44.2082
44.6429
45.0818
45.5251
45.9731
46.428
46.8902
47.3607
47.8393
48.328
48.8274
49.3386
49.8629
50.4
50.9519
51.5198
52.1048
52.7091
53.3366
53.9903
54.6791
55.4116
56.4944
58.5863
60.4125
63.7126
68.1639
72.5845
74.3226
8.08532
13.4061
13.9687
14.5137
15.0706
15.6386
16.2167
16.8044
17.4009
18.0057
18.6179
19.2367
19.8613
20.491
21.124
21.76
22.3983
23.0375
23.6766
24.3149
24.9513
25.5846
26.2145
26.8399
27.4597
28.0731
28.6797
29.2791
29.87
30.4522
31.0254
31.589
32.1427
32.6862
33.2196
33.7428
34.2557
34.7586
35.2512
35.7341
36.2078
36.6728
37.1288
37.5771
38.0181
38.4521
38.8803
39.3035
39.7218
40.1365
40.5481
40.9574
41.3661
41.774
42.1821
42.592
43.004
43.4183
43.8365
44.2594
44.6877
45.1216
45.5629
46.0126
46.471
46.9378
47.4156
47.9035
48.4035
48.9164
49.4421
49.9824
50.5374
51.1082
51.6981
52.3084
52.9423
53.6038
54.2988
55.3849
57.3362
58.8089
62.0441
66.3135
69.9538
71.5516
8.97195
13.8774
14.4466
14.9918
15.5479
16.1135
16.6881
17.2708
17.8612
18.458
19.0607
19.6684
20.2799
20.8946
21.512
22.1306
22.7494
23.3678
23.9847
24.5989
25.2099
25.8169
26.4188
27.0151
27.6048
28.1872
28.7618
29.3284
29.8856
30.4336
30.9726
31.5016
32.02
32.5285
33.0271
33.5153
33.9936
34.4621
34.9208
35.3703
35.8112
36.2439
36.6687
37.0864
37.4976
37.9027
38.303
38.6992
39.0915
39.4811
39.8688
40.2553
40.6417
41.0288
41.4172
41.8081
42.202
42.5992
43.001
43.4085
43.8222
44.2423
44.67
45.1059
45.5513
46.0061
46.471
46.9467
47.4343
47.9343
48.4474
48.9735
49.5139
50.0697
50.6421
51.2319
51.8439
52.4751
53.1405
54.2453
56.0845
57.2973
60.4743
64.4325
67.3375
68.6809
9.90465
14.3758
14.9479
15.4916
16.0449
16.6063
17.175
17.7505
18.3316
18.9178
19.5083
20.102
20.6979
21.2957
21.8941
22.4921
23.0891
23.6838
24.2754
24.8635
25.4467
26.0243
26.5961
27.1609
27.7184
28.2677
28.8086
29.3407
29.8632
30.3763
30.8797
31.373
31.8557
32.3285
32.7913
33.2443
33.6878
34.1217
34.5468
34.9632
35.3715
35.7725
36.1663
36.5542
36.9365
37.3136
37.6869
38.0565
38.4234
38.7891
39.1537
39.518
39.8835
40.2506
40.6198
40.992
41.368
41.7487
42.1348
42.5269
42.9256
43.3319
43.7457
44.168
44.6004
45.0418
45.4932
45.9562
46.4302
46.9164
47.4153
47.9263
48.4506
48.9886
49.542
50.1109
50.6983
51.2962
51.9402
53.0778
54.8177
55.8728
58.9442
62.4932
64.7484
65.834
10.8698
14.9025
15.4738
16.014
16.5619
17.1163
17.6762
18.2416
18.8113
19.3839
19.9591
20.5358
21.1132
21.6906
22.267
22.8413
23.4132
23.9813
24.5452
25.1038
25.6565
26.2029
26.7423
27.2736
27.7967
28.3112
28.8166
29.3127
29.7992
30.2758
30.7424
31.1992
31.6459
32.0825
32.5095
32.9272
33.336
33.736
34.1276
34.5113
34.8876
35.2571
35.6207
35.9792
36.3333
36.6832
37.0302
37.3749
37.7176
38.0599
38.4024
38.7455
39.0907
39.4383
39.7891
40.1437
40.5027
40.8671
41.2374
41.6145
41.9988
42.3908
42.7909
43.1995
43.6184
44.0465
44.4846
44.9336
45.3934
45.865
46.3479
46.8429
47.3498
47.869
48.4024
48.9487
49.5096
50.0742
50.7038
51.8758
53.5213
54.4883
57.3466
60.4556
62.2102
63.1587
11.8935
15.4522
16.0245
16.5576
17.0975
17.642
18.1906
18.7427
19.2965
19.8524
20.4092
20.9654
21.5207
22.0746
22.6259
23.1735
23.7171
24.2558
24.7886
25.3154
25.8351
26.3474
26.8519
27.3477
27.8349
28.3129
28.7813
29.2402
29.6892
30.1283
30.5579
30.9777
31.3874
31.7879
32.1794
32.562
32.9362
33.3023
33.6606
34.0122
34.3574
34.697
35.0315
35.3619
35.6884
36.0119
36.3336
36.6541
36.9739
37.294
37.6152
37.9385
38.2641
38.5929
38.9262
39.2639
39.6066
39.9555
40.3107
40.6732
41.0434
41.4212
41.8075
42.2027
42.6074
43.0219
43.4465
43.8814
44.3266
44.7828
45.2495
45.727
46.2153
46.7148
47.2267
47.7502
48.2831
48.8165
49.4363
50.6283
52.1841
53.0909
55.6037
58.3586
59.728
60.5302
12.9617
16.0352
16.6004
17.1237
17.6516
18.1826
18.7159
19.2507
19.786
20.3211
20.8554
21.3877
21.9174
22.4439
22.9666
23.4842
23.9962
24.5022
25.0014
25.4935
25.9778
26.4538
26.9212
27.3795
27.8288
28.2686
28.6987
29.1194
29.5303
29.9316
30.3232
30.7055
31.0786
31.443
31.7989
32.1466
32.4869
32.8197
33.146
33.4662
33.7812
34.0916
34.398
34.701
35.0014
35.3001
35.5979
35.8953
36.1934
36.4924
36.7935
37.0974
37.4047
37.7163
38.0327
38.3544
38.6817
39.0156
39.3562
39.7045
40.0606
40.425
40.798
41.1797
41.5709
41.9713
42.3815
42.8015
43.2312
43.6716
44.1218
44.581
45.0505
45.53
46.0192
46.5182
47.0209
47.5262
48.1385
49.3268
50.7936
51.6257
53.7338
56.2695
57.2593
57.9671
14.0952
16.6446
17.2013
17.7107
18.223
18.7364
19.25
19.7636
20.2758
20.786
21.2938
21.7982
22.2982
22.7937
23.2839
23.7677
24.2455
24.7159
25.1785
25.6333
26.0795
26.517
26.9454
27.3646
27.7747
28.1752
28.5659
28.9474
29.3197
29.6826
30.0363
30.3816
30.7183
31.0467
31.3675
31.6811
31.9878
32.2886
32.5838
32.8736
33.1593
33.4418
33.7211
33.9983
34.2741
34.5491
34.824
35.0997
35.3768
35.6561
35.9387
36.2247
36.5148
36.8098
37.11
37.4164
37.7291
38.0489
38.3758
38.7103
39.0526
39.4038
39.7635
40.1316
40.5088
40.8953
41.2913
41.6966
42.1105
42.5342
42.9668
43.4077
43.8571
44.3147
44.7803
45.2541
45.7246
46.2063
46.8117
47.9723
49.3505
50.0498
51.8184
54.2092
54.8247
55.5675
15.2888
17.2842
17.8264
18.3172
18.8087
19.2996
19.7891
20.2768
20.7615
21.2425
21.7197
22.1919
22.6583
23.1189
23.5733
24.0202
24.4597
24.8913
25.3148
25.7299
26.1359
26.5328
26.9207
27.2994
27.6689
28.0291
28.38
28.7221
29.0554
29.3797
29.6958
30.004
30.3045
30.598
30.8845
31.1649
31.4396
31.7091
31.9743
32.2355
32.4935
32.749
33.0028
33.2556
33.5079
33.7605
34.0141
34.2695
34.5272
34.7882
35.053
35.322
35.5961
35.8757
36.1609
36.4527
36.7515
37.0575
37.3709
37.6924
38.0218
38.3597
38.7058
39.0603
39.4238
39.796
40.177
40.5671
40.965
41.3711
41.7852
42.2069
42.6355
43.0705
43.5112
43.9594
44.3959
44.859
45.4559
46.5698
47.8592
48.3708
49.8953
52.1784
52.477
53.1987
16.5509
17.9463
18.4722
18.9392
19.4051
19.8685
20.3291
20.7857
21.2378
21.6848
22.1265
22.5623
22.9912
23.4132
23.8279
24.2344
24.6333
25.0234
25.4052
25.7783
26.1422
26.4974
26.8434
27.1802
27.5084
27.828
28.1387
28.4412
28.7355
29.0218
29.3008
29.5727
29.8379
30.0972
30.3508
30.599
30.8428
31.0828
31.3192
31.5529
31.7847
32.015
32.2447
32.4745
32.7049
32.9368
33.1706
33.4069
33.6467
33.8905
34.1388
34.392
34.651
34.916
35.187
35.465
35.7505
36.0435
36.3438
36.6524
36.969
37.2936
37.6264
37.9674
38.3169
38.6746
39.0403
39.4141
39.7948
40.1831
40.5787
40.9801
41.3867
41.7987
42.2144
42.6356
43.0371
43.4878
44.0745
45.1334
46.315
46.6411
47.9905
50.1876
50.2305
50.7317
17.8494
18.6354
19.1338
19.5717
20.0062
20.4369
20.8625
21.2831
21.6979
22.1066
22.5087
22.9036
23.2909
23.6706
24.0426
24.4058
24.7607
25.1073
25.4452
25.7744
26.0949
26.4066
26.7098
27.0047
27.2912
27.5697
27.8403
28.1035
28.3596
28.6088
28.8515
29.0881
29.3192
29.5456
29.7675
29.9853
30.1997
30.4114
30.621
30.8287
31.0355
31.2426
31.45
31.6581
31.8683
32.0808
32.296
32.5148
32.7379
32.9657
33.1987
33.4372
33.6821
33.9335
34.1913
34.4563
34.7288
35.009
35.2969
35.5926
35.896
36.2075
36.5269
36.8544
37.1895
37.5321
37.8825
38.2395
38.6029
38.9731
39.3492
39.7297
40.1145
40.5027
40.8928
41.2875
41.6549
42.0983
42.6729
43.6781
44.7132
44.9179
46.1299
48.1969
48.0427
48.2566
19.2299
19.3488
19.8133
20.2147
20.6117
21.0031
21.3882
21.7673
22.1393
22.5038
22.8614
23.2112
23.5526
23.8866
24.2125
24.5295
24.8384
25.1391
25.4315
25.7154
25.9913
26.2592
26.5189
26.7712
27.0163
27.254
27.4851
27.71
27.9284
28.1412
28.3488
28.5517
28.7503
28.945
29.1366
29.3257
29.5124
29.6975
29.8818
30.0654
30.2495
30.4348
30.6213
30.8099
31.0013
31.1958
31.3939
31.5967
31.8043
32.0172
32.2361
32.4607
32.6923
32.9307
33.176
33.4285
33.6884
33.9562
34.2317
34.5149
34.8056
35.104
35.41
35.7236
36.0443
36.3717
36.7057
37.0463
37.3924
37.7443
38.1011
38.4609
38.8241
39.1895
39.555
39.9233
40.2599
40.7007
41.261
42.2119
43.0785
43.2286
44.3424
46.1934
45.8696
45.8933
20.7032
20.0999
20.5194
20.8761
21.2267
21.5711
21.9085
22.2387
22.5613
22.8764
23.1841
23.4841
23.7757
24.0596
24.3358
24.604
24.8644
25.1172
25.3623
25.5999
25.8304
26.0536
26.27
26.4799
26.6837
26.8817
27.0739
27.261
27.4434
27.6211
27.7951
27.9658
28.1335
28.2985
28.4616
28.6235
28.7842
28.9446
29.1055
29.267
29.4299
29.5948
29.7622
29.9327
30.1069
30.2851
30.4676
30.6556
30.8489
31.0479
31.2537
31.4657
31.6847
31.9108
32.144
32.3845
32.6328
32.8887
33.1521
33.4232
33.7013
33.9867
34.2796
34.5793
34.8857
35.1984
35.517
35.8413
36.1705
36.5044
36.8424
37.1829
37.5256
37.8691
38.2126
38.5555
38.8679
39.3068
39.848
40.7421
41.4512
41.5794
42.6044
44.2131
43.7665
43.6975
22.3269
20.9052
21.2629
21.5632
21.8573
22.1446
22.4247
22.6982
22.9644
23.2233
23.4752
23.7197
23.957
24.1875
24.411
24.6271
24.8369
25.04
25.2367
25.427
25.6113
25.7899
25.9631
26.1313
26.2947
26.4536
26.6082
26.759
26.9065
27.0511
27.1932
27.3332
27.4716
27.6089
27.7455
27.8821
28.0191
28.1569
28.296
28.4371
28.5807
28.7273
28.8774
29.0314
29.1899
29.3531
29.5214
29.6959
29.8763
30.0629
30.2563
30.4567
30.664
30.8787
31.1008
31.3302
31.5673
31.8118
32.0637
32.3231
32.5896
32.8629
33.1432
33.43
33.7228
34.0216
34.326
34.6353
34.9489
35.2666
35.5874
35.9103
36.2347
36.5585
36.882
37.201
37.4973
37.9318
38.4452
39.2781
39.864
39.9754
40.9058
42.2995
41.7814
41.6692
24.0553
21.7496
22.0315
22.2634
22.4893
22.7098
22.9243
23.1328
23.3354
23.5318
23.7228
23.908
24.0871
24.2606
24.4287
24.5913
24.7491
24.9016
25.0492
25.1925
25.3313
25.466
25.5969
25.7243
25.8485
25.9698
26.0886
26.2052
26.32
26.4334
26.5456
26.6572
26.7686
26.8802
26.9925
27.1062
27.2215
27.3387
27.4583
27.5811
27.7074
27.8376
27.972
28.1114
28.256
28.4059
28.5617
28.7239
28.8927
29.0683
29.2508
29.4404
29.6377
29.8422
30.0543
30.2737
30.5006
30.735
30.9767
31.2258
31.4818
31.7443
32.0132
32.2883
32.5694
32.856
33.1477
33.4439
33.7441
34.0477
34.3537
34.6613
34.9694
35.2764
35.5827
35.8787
36.166
36.5914
37.0657
37.8394
38.3359
38.4213
39.2575
40.4601
39.9046
39.7784
25.7576
22.5777
22.7677
22.9222
23.0727
23.2195
23.3626
23.5018
23.6371
23.7683
23.8958
24.0194
24.1392
24.2557
24.3689
24.4783
24.5845
24.6877
24.7881
24.8858
24.9811
25.0742
25.1651
25.2544
25.3421
25.4285
25.5143
25.5995
25.6842
25.7692
25.8545
25.9406
26.028
26.1169
26.2076
26.3009
26.3969
26.4962
26.5989
26.7057
26.8171
26.933
27.0539
27.1808
27.3134
27.4521
27.5973
27.7492
27.9082
28.0743
28.2476
28.4285
28.6171
28.8131
29.0168
29.2277
29.4463
29.6723
29.9056
30.146
30.3929
30.6466
30.9063
31.1717
31.443
31.7196
32.0006
32.2858
32.5745
32.8659
33.159
33.4532
33.7469
34.0385
34.3289
34.6031
34.8861
35.2965
35.7214
36.4424
36.8672
36.9172
37.6592
38.6881
38.1134
37.9797
27.1923
23.2729
23.3675
23.4438
23.5189
23.5931
23.666
23.7374
23.8075
23.8761
23.9432
24.009
24.0732
24.1363
24.198
24.2583
24.3177
24.376
24.4336
24.4902
24.5464
24.6023
24.6577
24.7133
24.769
24.8251
24.882
24.9398
24.9988
25.0594
25.1217
25.186
25.253
25.3228
25.3955
25.4717
25.5519
25.6363
25.7252
25.8192
25.9182
26.0227
26.133
26.2498
26.373
26.5028
26.6395
26.7836
26.935
27.0937
27.2601
27.4342
27.6163
27.806
28.0032
28.2079
28.4202
28.6397
28.8665
29.1003
29.3403
29.587
29.8395
30.0974
30.3607
30.6288
30.9009
31.1763
31.4548
31.735
32.0164
32.2977
32.5773
32.8538
33.128
33.3805
33.6596
34.0495
34.4206
35.0918
35.446
35.4556
36.1079
36.9697
36.4023
36.2688
28.1043
23.7073
23.7121
23.719
23.728
23.7391
23.7512
23.7641
23.7784
23.7934
23.8092
23.826
23.8434
23.8615
23.8805
23.9002
23.9208
23.9419
23.9642
23.9874
24.0117
24.0373
24.064
24.0924
24.1224
24.1542
24.1881
24.2244
24.2631
24.3045
24.3489
24.3963
24.4474
24.5025
24.5616
24.625
24.6932
24.7667
24.8454
24.9297
25.0198
25.1162
25.219
25.3288
25.4455
25.5692
25.7004
25.8391
25.9854
26.1394
26.3012
26.471
26.6488
26.8343
27.0273
27.2277
27.4356
27.6506
27.8728
28.1017
28.3366
28.5778
28.8242
29.0756
29.3317
29.5919
29.8556
30.1219
30.3899
30.6586
30.9275
31.195
31.4596
31.7196
31.976
32.2059
32.4783
32.8435
33.1621
33.7826
34.0607
34.0282
34.5981
35.2989
34.7648
34.6442
28.3705
23.7792
23.7139
23.6686
23.6284
23.5923
23.5594
23.5295
23.5025
23.4781
23.4563
23.4372
23.4202
23.4056
23.3935
23.3838
23.3762
23.3708
23.3676
23.3667
23.3683
23.3723
23.3788
23.3879
23.3998
23.4147
23.4326
23.4539
23.4786
23.5069
23.5392
23.5754
23.616
23.6614
23.7116
23.7668
23.8276
23.8942
23.9666
24.0451
24.1301
24.2219
24.3205
24.4265
24.5396
24.6603
24.7886
24.9246
25.0685
25.2202
25.3798
25.5473
25.7226
25.9056
26.0961
26.2939
26.4989
26.7107
26.9293
27.154
27.3843
27.6202
27.8607
28.1057
28.3544
28.6063
28.8604
29.1159
29.3721
29.628
29.8827
30.1344
30.3819
30.6232
30.8593
31.0659
31.3278
31.666
31.9367
32.5041
32.7028
32.63
33.1274
33.6743
33.1945
33.0921
27.9865
23.4684
23.3552
23.2774
23.2073
23.1426
23.0824
23.0264
22.9745
22.9264
22.8821
22.8415
22.8039
22.7698
22.7393
22.7119
22.6876
22.6663
22.6482
22.6332
22.6215
22.613
22.6078
22.606
22.6077
22.6129
22.6221
22.6351
22.6521
22.6735
22.6993
22.7298
22.7653
22.8061
22.8521
22.9037
22.9613
23.025
23.0949
23.1714
23.2547
23.345
23.4425
23.5475
23.6599
23.7799
23.9076
24.0431
24.1864
24.3377
24.4965
24.6632
24.8375
25.0192
25.208
25.4037
25.6062
25.815
26.0298
26.25
26.4754
26.7053
26.9391
27.1764
27.4162
27.6579
27.9006
28.1437
28.3863
28.6271
28.8653
29.0993
29.3276
29.5486
29.763
29.9457
30.194
30.5034
30.733
31.2467
31.3663
31.2593
31.6943
32.0967
31.6857
31.6111
27.1178
22.8258
22.6893
22.5965
22.5136
22.4367
22.3648
22.2977
22.2351
22.1769
22.1229
22.0733
22.0274
21.9852
21.9468
21.9122
21.8811
21.8534
21.8292
21.8088
21.792
21.7787
21.7691
21.7634
21.7615
21.7636
21.7699
21.7805
21.7954
21.815
21.8395
21.8689
21.9035
21.9437
21.9895
22.0412
22.0989
22.1631
22.2336
22.3109
22.3952
22.4866
22.5852
22.6912
22.8048
22.9258
23.0544
23.1908
23.3347
23.4862
23.6453
23.8117
23.9852
24.1656
24.3528
24.5462
24.7457
24.9506
25.1608
25.3757
25.5947
25.8173
26.0426
26.2701
26.4993
26.729
26.9588
27.1877
27.4147
27.6388
27.8591
28.0741
28.2823
28.4825
28.6745
28.8341
29.0673
29.3471
29.5435
30.004
30.0488
29.9177
30.3011
30.5712
30.2374
30.1969
25.9613
21.9559
21.8156
21.7201
21.6361
21.5582
21.4855
21.4176
21.3544
21.2957
21.2412
21.1911
21.145
21.1026
21.0639
21.0292
20.9982
20.9707
20.947
20.927
20.9107
20.8981
20.8894
20.8846
20.8838
20.8872
20.895
20.907
20.9236
20.945
20.9714
21.0029
21.0397
21.0821
21.1303
21.1845
21.2447
21.3113
21.3844
21.4643
21.5511
21.645
21.7458
21.854
21.9695
22.0922
22.2223
22.3598
22.5046
22.6566
22.8156
22.9814
23.1536
23.3323
23.5168
23.707
23.9024
24.1025
24.3068
24.5149
24.7261
24.9398
25.1552
25.3718
25.5889
25.8056
26.0212
26.2345
26.4452
26.652
26.8541
27.05
27.2384
27.418
27.5881
27.7265
27.9445
28.1954
28.3664
28.7749
28.7529
28.6088
28.9509
29.1032
28.8553
28.8499
24.7162
20.973
20.8424
20.7504
20.6713
20.5982
20.5302
20.4671
20.4083
20.354
20.3038
20.2577
20.2154
20.177
20.1423
20.1113
20.084
20.0603
20.0401
20.0237
20.011
20.0019
19.9967
19.9954
19.9982
20.0052
20.0164
20.032
20.0522
20.0772
20.1072
20.1423
20.1827
20.2287
20.2804
20.3381
20.4018
20.4717
20.5481
20.6311
20.7209
20.8175
20.9209
21.0313
21.1488
21.2732
21.4046
21.5429
21.688
21.8398
21.9979
22.1622
22.3324
22.5084
22.6892
22.875
23.0654
23.2594
23.4568
23.6569
23.8593
24.0632
24.2678
24.4728
24.6772
24.8803
25.0813
25.2792
25.4738
25.6636
25.8479
26.0256
26.1952
26.3555
26.5053
26.6252
26.8287
27.0517
27.2046
27.5623
27.4843
27.3387
27.647
27.6961
27.5422
27.5675
23.5057
19.9741
19.8555
19.7685
19.6959
19.6295
19.5677
19.5106
19.4579
19.4092
19.3646
19.3239
19.2869
19.2536
19.2238
19.1975
19.1749
19.1557
19.14
19.128
19.1196
19.1149
19.114
19.1168
19.1238
19.1349
19.1501
19.1696
19.1939
19.2229
19.2568
19.2958
19.3399
19.3896
19.445
19.5062
19.5733
19.6465
19.726
19.8119
19.9043
20.0033
20.1088
20.221
20.3398
20.4653
20.5972
20.7356
20.8803
21.0309
21.1874
21.3495
21.5168
21.689
21.8655
22.0461
22.2304
22.4177
22.6074
22.7991
22.992
23.1857
23.3795
23.5726
23.7644
23.954
24.1409
24.3241
24.5032
24.6769
24.8447
25.0054
25.1576
25.3004
25.4317
25.5356
25.7251
25.9225
26.0643
26.3708
26.2492
26.1119
26.3899
26.353
26.2937
26.3295
22.388
19.0111
18.9049
18.8219
18.755
18.6944
18.6383
18.5866
18.5392
18.4957
18.456
18.42
18.3875
18.3587
18.3333
18.3113
18.2928
18.2776
18.2659
18.2578
18.2533
18.2525
18.2553
18.2619
18.2724
18.2872
18.306
18.3292
18.357
18.3896
18.4269
18.4692
18.5168
18.5696
18.6281
18.6923
18.7623
18.8381
18.9201
19.0082
19.1025
19.2033
19.3103
19.4235
19.543
19.6687
19.8004
19.9381
20.0815
20.2303
20.3844
20.5436
20.7073
20.8751
21.0466
21.2216
21.3995
21.5796
21.7614
21.9445
22.1281
22.3117
22.4946
22.6762
22.8558
23.0326
23.206
23.3752
23.5397
23.6984
23.8509
23.9958
24.1318
24.2587
24.3732
24.4629
24.6393
24.8139
24.9502
25.2047
25.052
24.9308
25.1773
25.0727
25.1026
25.1289
21.3689
18.0966
18.0075
17.9269
17.864
17.8076
17.7559
17.7084
17.6648
17.6251
17.5891
17.5566
17.5276
17.5022
17.4801
17.4613
17.4459
17.4339
17.4253
17.4203
17.4187
17.4208
17.4266
17.4361
17.4496
17.4672
17.4889
17.515
17.5458
17.5811
17.6212
17.6662
17.7163
17.7718
17.8327
17.8992
17.9713
18.0492
18.133
18.2227
18.3185
18.4202
18.5278
18.6414
18.761
18.8863
19.0171
19.1535
19.2951
19.4416
19.5929
19.7485
19.9081
20.0713
20.2375
20.4066
20.5778
20.7506
20.9245
21.0989
21.2734
21.447
21.6193
21.7898
21.9576
22.1222
22.2827
22.4386
22.5894
22.734
22.872
23.0022
23.1235
23.2355
23.3345
23.4121
23.5754
23.7301
23.8656
24.0675
23.8956
23.7944
24.0056
23.853
23.9631
23.9693
20.4339
17.2361
17.1597
17.0798
17.0198
16.9666
16.9179
16.8734
16.8326
16.7957
16.7624
16.7325
16.7061
16.683
16.6634
16.647
16.6339
16.6243
16.618
16.6152
16.616
16.6203
16.6284
16.6403
16.6561
16.676
16.7001
16.7284
16.7614
16.7989
16.8412
16.8885
16.9407
16.9982
17.061
17.1293
17.2031
17.2825
17.3675
17.4582
17.5548
17.6571
17.7649
17.8785
17.9975
18.1219
18.2516
18.3862
18.5255
18.6693
18.8173
18.9692
19.1244
19.2826
19.4433
19.6062
19.7706
19.9361
20.1021
20.268
20.4331
20.5969
20.759
20.9185
21.0748
21.2274
21.3757
21.5189
21.6566
21.7879
21.9121
22.0285
22.1359
22.2341
22.3187
22.3857
22.5356
22.6738
22.8117
22.9615
22.7803
22.7005
22.8712
22.6902
22.8714
22.8498
19.5464
16.411
16.3512
16.2709
16.213
16.1623
16.116
16.0738
16.0355
16.0007
15.9694
15.9417
15.9174
15.8963
15.8785
15.8642
15.8531
15.8454
15.8411
15.8402
15.843
15.8493
15.8593
15.8731
15.8909
15.9128
15.9389
15.9693
16.0042
16.0436
16.0879
16.1369
16.1909
16.2501
16.3145
16.3842
16.4594
16.5399
16.6258
16.7173
16.8144
16.9168
17.0245
17.1376
17.2558
17.379
17.5069
17.6394
17.7762
17.917
18.0614
18.2092
18.3598
18.5129
18.6678
18.8244
18.9818
19.1398
19.2977
19.4549
19.6108
19.7649
19.9166
20.0654
20.2106
20.3516
20.4879
20.6187
20.7437
20.8621
20.9734
21.0766
21.1708
21.2562
21.3277
21.3855
21.5218
21.6471
21.7884
21.8873
21.705
21.6462
21.7726
21.5826
21.8259
21.769
18.703
15.6146
15.5733
15.4922
15.436
15.3875
15.3436
15.3036
15.2674
15.2347
15.2055
15.1797
15.1573
15.1381
15.1223
15.1098
15.1006
15.0947
15.0923
15.0933
15.0979
15.1061
15.118
15.1337
15.1534
15.1772
15.2051
15.2374
15.2741
15.3154
15.3614
15.4121
15.4678
15.5285
15.5943
15.6653
15.7415
15.8229
15.9095
16.0015
16.0987
16.201
16.3083
16.4206
16.5376
16.6592
16.7852
16.9153
17.0492
17.1866
17.3272
17.4706
17.6162
17.7638
17.9129
18.0628
18.2131
18.3634
18.513
18.6615
18.8081
18.9524
19.094
19.2321
19.3662
19.4959
19.6204
19.7392
19.852
19.9581
20.0571
20.148
20.23
20.3032
20.3627
20.4127
20.5351
20.6514
20.7953
20.8456
20.6687
20.6296
20.7106
20.5301
20.8218
20.7262
17.8924
14.8433
14.8223
14.7401
14.6854
14.6393
14.5977
14.56
14.526
14.4955
14.4684
14.4447
14.4243
14.4072
14.3932
14.3826
14.3753
14.3714
14.3709
14.3738
14.3803
14.3904
14.4042
14.4219
14.4435
14.4691
14.4989
14.5331
14.5716
14.6146
14.6623
14.7146
14.7718
14.8339
14.9009
14.973
15.0501
15.1322
15.2193
15.3114
15.4085
15.5105
15.6171
15.7283
15.8438
15.9636
16.0873
16.2146
16.3453
16.479
16.6154
16.754
16.8945
17.0363
17.179
17.3221
17.4651
17.6075
17.7488
17.8883
18.0257
18.1603
18.2917
18.4192
18.5424
18.6609
18.7741
18.8815
18.9827
19.077
19.1643
19.2436
19.3141
19.3763
19.4248
19.4682
19.5771
19.6873
19.8306
19.8361
19.67
19.6491
19.6864
19.5313
19.8567
17.1138
14.098
14.0982
14.0149
13.9617
13.9179
13.8787
13.8434
13.8117
13.7834
13.7584
13.7369
13.7186
13.7035
13.6917
13.6831
13.6778
13.6759
13.6773
13.6822
13.6906
13.7027
13.7185
13.7381
13.7616
13.7891
13.8208
13.8567
13.897
13.9417
13.9909
14.0448
14.1034
14.1667
14.2347
14.3077
14.3854
14.468
14.5554
14.6475
14.7441
14.8454
14.951
15.0608
15.1745
15.2921
15.4132
15.5374
15.6645
15.7942
15.9261
16.0597
16.1946
16.3304
16.4665
16.6026
16.738
16.8725
17.0053
17.1359
17.2639
17.3889
17.5102
17.6274
17.74
17.8477
17.9499
18.0463
18.1364
18.2196
18.2958
18.3643
18.4242
18.4762
18.5149
18.5526
18.6493
16.3738
13.3765
13.4028
13.3182
13.2663
13.2247
13.1879
13.155
13.1256
13.0996
13.0768
13.0575
13.0413
13.0284
13.0185
13.012
13.0087
13.0088
13.0123
13.0191
13.0295
13.0435
13.0613
13.0827
13.1081
13.1375
13.1709
13.2086
13.2505
13.2967
13.3474
13.4026
13.4624
13.5267
13.5957
13.6693
13.7475
13.8303
13.9176
14.0093
14.1053
14.2056
14.3098
14.4179
14.5295
14.6445
14.7626
14.8835
15.0067
15.1321
15.2592
15.3874
15.5165
15.6461
15.7755
15.9044
16.0321
16.1585
16.2827
16.4045
16.5232
16.6386
16.7501
16.8572
16.9596
17.0568
17.1486
17.2344
17.3139
17.3868
17.4527
17.511
17.5613
17.604
17.6342
17.6668
17.753
15.6734
12.6787
12.7373
12.651
12.6002
12.5607
12.5263
12.4957
12.4687
12.4449
12.4244
12.4072
12.3931
12.3822
12.3745
12.3699
12.3687
12.3707
12.3761
12.3849
12.3972
12.4131
12.4327
12.456
12.4831
12.5142
12.5493
12.5886
12.632
12.6797
12.7317
12.7881
12.8488
12.914
12.9836
13.0576
13.136
13.2187
13.3056
13.3967
13.4918
13.5907
13.6933
13.7993
13.9085
14.0206
14.1355
14.2526
14.3717
14.4925
14.6145
14.7372
14.8602
14.9833
15.1058
15.2274
15.3474
15.4656
15.5813
15.6943
15.804
15.9099
16.0118
16.1091
16.2016
16.2889
16.3706
16.4463
16.516
16.5792
16.6355
16.6846
16.726
16.7604
16.7831
16.8114
16.8895
15.0114
12.0099
12.1019
12.0138
11.9638
11.9262
11.8941
11.8659
11.841
11.8195
11.8012
11.786
11.774
11.765
11.7593
11.7568
11.7574
11.7614
11.7686
11.7793
11.7934
11.8112
11.8325
11.8575
11.8864
11.9191
11.9557
11.9964
12.0411
12.0901
12.1432
12.2005
12.2621
12.3278
12.3978
12.472
12.5503
12.6327
12.719
12.8092
12.903
13.0003
13.1009
13.2046
13.3111
13.4201
13.5313
13.6445
13.7592
13.8751
13.9917
14.1087
14.2256
14.342
14.4576
14.5717
14.684
14.794
14.9014
15.0057
15.1063
15.2031
15.2956
15.3835
15.4665
15.5443
15.6165
15.6828
15.7433
15.7973
15.8448
15.8855
15.9188
15.9458
15.9621
15.9865
16.0593
14.385
11.3666
11.4963
11.4063
11.3567
11.3209
11.2908
11.2648
11.2421
11.2227
11.2065
11.1933
11.1833
11.1764
11.1726
11.172
11.1745
11.1803
11.1893
11.2018
11.2177
11.2372
11.2602
11.2868
11.3172
11.3514
11.3895
11.4315
11.4774
11.5274
11.5814
11.6395
11.7016
11.7678
11.8379
11.9121
11.99
12.0718
12.1572
12.2462
12.3384
12.4339
12.5322
12.6333
12.7368
12.8423
12.9498
13.0587
13.1687
13.2795
13.3907
13.5017
13.6123
13.7221
13.8306
13.9373
14.0418
14.1438
14.2428
14.3386
14.4305
14.5184
14.6019
14.6808
14.7547
14.8234
14.8866
14.9442
14.996
15.0417
15.0811
15.114
15.1402
15.1607
15.1715
15.1928
15.2631
13.7972
10.7474
10.9196
10.8275
10.778
10.7438
10.7158
10.6918
10.6713
10.654
10.6397
10.6285
10.6205
10.6155
10.6135
10.6147
10.6191
10.6267
10.6375
10.6517
10.6693
10.6903
10.7149
10.7431
10.775
10.8105
10.8498
10.8929
10.9399
10.9908
11.0455
11.1041
11.1666
11.233
11.3031
11.3769
11.4542
11.5352
11.6194
11.7069
11.7973
11.8907
11.9865
12.0847
12.1849
12.2868
12.3902
12.4946
12.5998
12.7054
12.8109
12.916
13.0202
13.1231
13.2245
13.3239
13.4207
13.5148
13.6056
13.693
13.7764
13.8558
13.9307
14.0009
14.0662
14.1264
14.1812
14.2306
14.2744
14.3125
14.3445
14.3704
14.3903
14.4051
14.4112
14.4302
14.5002
13.2382
10.1514
10.3708
10.2768
10.227
10.1942
10.1681
10.1461
10.1276
10.1123
10.1
10.0908
10.0846
10.0815
10.0814
10.0844
10.0905
10.0998
10.1123
10.1281
10.1473
10.1699
10.196
10.2255
10.2587
10.2954
10.3359
10.38
10.4278
10.4794
10.5347
10.5937
10.6563
10.7226
10.7924
10.8656
10.9422
11.022
11.1049
11.1906
11.279
11.3699
11.463
11.558
11.6548
11.7528
11.8519
11.9518
12.052
12.1521
12.2518
12.3508
12.4486
12.5448
12.6391
12.731
12.8204
12.9066
12.9895
13.0688
13.1441
13.2152
13.2818
13.3439
13.4011
13.4533
13.5003
13.5422
13.5786
13.6096
13.635
13.6547
13.6691
13.6789
13.6812
13.6989
12.7136
9.578
9.84916
9.75316
9.70283
9.6713
9.64692
9.62688
9.61032
9.59693
9.58655
9.57922
9.57491
9.57355
9.5752
9.57994
9.58776
9.5987
9.61283
9.63023
9.6509
9.67491
9.70232
9.73319
9.76753
9.80538
9.84675
9.89169
9.94024
9.99234
10.048
10.1071
10.1697
10.2357
10.305
10.3774
10.453
10.5314
10.6127
10.6964
10.7826
10.8708
10.9609
11.0527
11.1457
11.2397
11.3344
11.4294
11.5245
11.6191
11.713
11.8058
11.8971
11.9866
12.0739
12.1586
12.2405
12.3191
12.3944
12.4658
12.5333
12.5965
12.6553
12.7096
12.7592
12.804
12.8439
12.8787
12.9085
12.9331
12.9525
12.9668
12.9766
12.982
12.9813
12.9988
12.221
9.0262
9.35352
9.2559
9.20462
9.17414
9.15138
9.13318