/*--------------------------------*- C++ -*----------------------------------*\
  =========                 |
  \\      /  F ield         | OpenFOAM: The Open Source CFD Toolbox
   \\    /   O peration     | Website:  https://openfoam.org
    \\  /    A nd           | Version:  9
     \\/     M anipulation  |
\*---------------------------------------------------------------------------*/
FoamFile
{
    format      ascii;
    class       volScalarField;
    location    "3000";
    object      p;
}
// * * * * * * * * * * * * * * * * * * * * * * * * * * * * * * * * * * * * * //

dimensions      [0 2 -2 0 0 0 0];

internalField   nonuniform List<scalar> 
13617
(
0.000330881
0.000317773
0.000331916
0.000337046
0.000348266
0.000354009
0.000361166
0.000364533
0.000367377
0.000367019
0.000365031
0.000359795
0.000351922
0.000340201
0.00032462
0.000304058
0.000278012
0.000245243
0.000204839
0.000155277
9.53147e-05
2.30585e-05
-6.3103e-05
-0.000165411
-0.000285931
-0.000427145
-0.000591633
-0.000782109
-0.00100156
-0.00125298
-0.00153967
-0.00186493
-0.0022322
-0.00264504
-0.00310706
-0.003622
-0.00419343
-0.00482529
-0.00552089
-0.00628401
-0.00711816
-0.00802656
-0.00901211
-0.0100774
-0.0112248
-0.0124558
-0.0137718
-0.015173
-0.0166591
-0.0182293
-0.0198809
-0.0216128
-0.0234201
-0.0252996
-0.0272481
-0.0292604
-0.0313337
-0.0334648
-0.0356524
-0.0378974
-0.0402042
-0.0425792
-0.0450353
-0.0475917
-0.0502746
-0.0531208
-0.0561785
-0.059512
-0.0632059
-0.0673714
-0.0721484
-0.0777274
-0.0843474
-0.0923133
-0.102017
-0.113977
-0.129021
-0.148175
-0.172098
-0.200692
-0.234045
-0.273841
-0.322601
-0.38081
-0.444979
-0.509506
0.000332555
0.000314884
0.000329332
0.000334635
0.000345945
0.00035175
0.000358917
0.000362293
0.000365115
0.000364742
0.000362721
0.00035746
0.000349562
0.000337817
0.000322224
0.000301643
0.000275597
0.000242832
0.000202449
0.00015292
9.30058e-05
2.08265e-05
-6.52358e-05
-0.000167421
-0.000287725
-0.000428724
-0.000592887
-0.000782966
-0.00100186
-0.00125267
-0.00153846
-0.00186262
-0.00222847
-0.00263967
-0.00309951
-0.00361178
-0.00418002
-0.00480782
-0.00549872
-0.00625602
-0.0070832
-0.00798313
-0.00895868
-0.0100121
-0.0111454
-0.0123597
-0.013656
-0.015034
-0.0164931
-0.0180314
-0.0196468
-0.0213358
-0.0230942
-0.0249174
-0.0268013
-0.0287405
-0.0307296
-0.0327657
-0.0348454
-0.0369682
-0.0391358
-0.0413528
-0.0436285
-0.0459777
-0.0484216
-0.0509888
-0.0537177
-0.0566599
-0.0598828
-0.0634685
-0.0675295
-0.0722023
-0.0776604
-0.0841269
-0.0918709
-0.101253
-0.112778
-0.127006
-0.144265
-0.164832
-0.189979
-0.222595
-0.265374
-0.317589
-0.374024
-0.427474
0.000327971
0.000310887
0.000325861
0.00033146
0.000342941
0.000348863
0.000356082
0.000359496
0.000362318
0.000361945
0.000359912
0.000354636
0.000346721
0.000334963
0.000319354
0.000298777
0.000272727
0.000239974
0.000199602
0.000150116
9.02381e-05
1.81528e-05
-6.78346e-05
-0.000169849
-0.000289991
-0.000430726
-0.000594536
-0.000784178
-0.0010025
-0.0012525
-0.00153736
-0.00186028
-0.00222461
-0.00263374
-0.00309127
-0.00360047
-0.00416507
-0.00478834
-0.00547375
-0.0062247
-0.00704392
-0.00793449
-0.00889877
-0.00993909
-0.0110567
-0.0122527
-0.0135274
-0.0148801
-0.0163099
-0.017814
-0.01939
-0.021033
-0.0227395
-0.0245038
-0.0263193
-0.0281811
-0.0300834
-0.0320209
-0.0339898
-0.0359874
-0.0380126
-0.0400699
-0.0421639
-0.0443043
-0.0465074
-0.0487947
-0.0511957
-0.0537485
-0.0565002
-0.0595139
-0.0628651
-0.0666455
-0.0709741
-0.0759884
-0.0818635
-0.0888169
-0.0971171
-0.107016
-0.118699
-0.132674
-0.150505
-0.174887
-0.207876
-0.248308
-0.291254
-0.330033
0.000321233
0.000306956
0.000322478
0.000328376
0.000340037
0.000346079
0.000353352
0.000356805
0.000359632
0.00035926
0.000357211
0.000351921
0.000343978
0.000332202
0.000316563
0.000295968
0.000269903
0.000237143
0.000196757
0.000147279
8.74282e-05
1.53593e-05
-7.05409e-05
-0.000172486
-0.000292477
-0.000433022
-0.000596549
-0.000785833
-0.00100365
-0.00125303
-0.001537
-0.00185885
-0.0022218
-0.00262924
-0.00308453
-0.00359111
-0.00415232
-0.00477165
-0.00545215
-0.00619716
-0.00700928
-0.00789138
-0.00884576
-0.00987383
-0.0109775
-0.0121569
-0.0134118
-0.0147419
-0.0161451
-0.0176184
-0.0191587
-0.0207614
-0.022421
-0.0241319
-0.0258872
-0.027681
-0.0295066
-0.0313578
-0.0332304
-0.0351199
-0.0370245
-0.038946
-0.0408865
-0.0428541
-0.0448614
-0.0469235
-0.0490634
-0.0513109
-0.0537021
-0.0562839
-0.0591102
-0.0622478
-0.0657784
-0.0697922
-0.0743984
-0.0797298
-0.0859316
-0.0931299
-0.101444
-0.111151
-0.123004
-0.138214
-0.157636
-0.180514
-0.204065
-0.224424
0.000315523
0.000303357
0.000319377
0.000325547
0.000337369
0.000343517
0.000350838
0.000354321
0.000357147
0.000356773
0.000354704
0.000349387
0.000341421
0.000329614
0.000313953
0.000293324
0.000267232
0.000234452
0.000194062
0.000144577
8.47361e-05
1.27115e-05
-7.3156e-05
-0.000174993
-0.000294852
-0.000435194
-0.000598474
-0.000787357
-0.0010047
-0.00125343
-0.00153655
-0.0018573
-0.00221891
-0.00262457
-0.00307767
-0.00358164
-0.00413957
-0.00475483
-0.00543062
-0.00616961
-0.00697495
-0.00784869
-0.00879301
-0.00980959
-0.0108991
-0.0120623
-0.0132986
-0.0146064
-0.0159838
-0.0174277
-0.0189338
-0.0204973
-0.0221122
-0.0237721
-0.0254708
-0.0271998
-0.0289527
-0.0307231
-0.0325048
-0.0342926
-0.0360845
-0.0378783
-0.0396764
-0.0414837
-0.0433083
-0.0451619
-0.0470612
-0.0490294
-0.0510917
-0.0532838
-0.0556432
-0.0582154
-0.0610535
-0.0642137
-0.0677606
-0.0717604
-0.0762768
-0.0813534
-0.0870243
-0.0933293
-0.100436
-0.108599
-0.117947
-0.127978
-0.137294
-0.143812
0.000310643
0.000299831
0.000316328
0.000322751
0.000334729
0.000340971
0.000348337
0.000351842
0.000354665
0.00035428
0.000352182
0.000346843
0.000338843
0.000327003
0.000311309
0.000290656
0.000264543
0.000231743
0.000191338
0.000141861
8.20454e-05
1.00535e-05
-7.57187e-05
-0.000177457
-0.000297137
-0.000437246
-0.000600211
-0.000788668
-0.00100543
-0.00125338
-0.00153559
-0.00185514
-0.00221511
-0.00261893
-0.00306968
-0.00357064
-0.00412506
-0.00473597
-0.00540651
-0.00613936
-0.00693705
-0.00780197
-0.00873576
-0.0097399
-0.0108149
-0.011961
-0.0131772
-0.0144619
-0.0158128
-0.0172258
-0.0186967
-0.0202198
-0.021789
-0.0233975
-0.0250371
-0.0267002
-0.0283795
-0.0300671
-0.0317561
-0.0334406
-0.0351168
-0.0367809
-0.0384331
-0.0400754
-0.0417124
-0.0433512
-0.0450029
-0.0466817
-0.0484052
-0.0501962
-0.0520767
-0.0540717
-0.0562116
-0.0585245
-0.0610297
-0.0637461
-0.0666827
-0.0698254
-0.0731285
-0.0765108
-0.079921
-0.0832607
-0.0863785
-0.0888158
-0.0896429
-0.0875081
0.000305753
0.000296223
0.000313199
0.000319875
0.000332007
0.000338342
0.000345748
0.000349274
0.000352087
0.000351687
0.000349561
0.000344192
0.000336153
0.000324282
0.000308557
0.000287873
0.000261731
0.000228917
0.000188511
0.000139051
7.92566e-05
7.33561e-06
-7.836e-05
-0.000179944
-0.000299444
-0.000439262
-0.000601858
-0.000789812
-0.00100594
-0.00125306
-0.00153418
-0.00185236
-0.00221069
-0.00261234
-0.00306053
-0.00355824
-0.00410881
-0.0047151
-0.00537989
-0.006106
-0.00689568
-0.00775108
-0.00867366
-0.00966456
-0.0107243
-0.0118522
-0.0130475
-0.0143081
-0.0156307
-0.017012
-0.0184462
-0.0199274
-0.0214496
-0.0230043
-0.0245835
-0.0261793
-0.0277829
-0.0293856
-0.03098
-0.0325593
-0.0341172
-0.0356491
-0.0371532
-0.0386278
-0.0400744
-0.0414956
-0.042896
-0.0442847
-0.0456681
-0.0470583
-0.0484641
-0.0498937
-0.0513577
-0.0528556
-0.0543764
-0.0559086
-0.0574189
-0.0588546
-0.0601209
-0.0610814
-0.0615874
-0.0614559
-0.0604213
-0.0580352
-0.0535252
-0.0459335
0.000300664
0.000292561
0.000310007
0.000316944
0.000329222
0.000335654
0.000343094
0.000346641
0.000349443
0.000349023
0.00034687
0.000341465
0.000333389
0.000321483
0.00030572
0.00028501
0.000258842
0.000226016
0.000185606
0.000136159
7.6401e-05
4.55129e-06
-8.10374e-05
-0.000182463
-0.000301737
-0.000441266
-0.000603424
-0.000790849
-0.00100625
-0.00125247
-0.00153243
-0.00184912
-0.00220561
-0.00260501
-0.00305032
-0.00354476
-0.00409107
-0.00469237
-0.00535117
-0.00607014
-0.00685134
-0.00769668
-0.00860751
-0.00958455
-0.0106279
-0.0117372
-0.0129107
-0.0141461
-0.0154398
-0.016788
-0.0181843
-0.0196232
-0.0210964
-0.0225965
-0.0241147
-0.0256421
-0.027169
-0.0286866
-0.0301862
-0.0316599
-0.0331002
-0.034501
-0.0358581
-0.0371673
-0.0384272
-0.0396352
-0.0407932
-0.0419012
-0.0429594
-0.0439698
-0.0449299
-0.0458356
-0.0466775
-0.0474371
-0.0480867
-0.0485891
-0.0488786
-0.0488837
-0.0484811
-0.0475167
-0.0457945
-0.0431009
-0.0391514
-0.0335292
-0.0256215
-0.0147642
0.00029557
0.000288887
0.000306801
0.000313993
0.000326418
0.000332943
0.000340417
0.00034398
0.000346767
0.000346332
0.000344141
0.000338704
0.000330584
0.000318645
0.000302843
0.000282096
0.00025591
0.00022307
0.00018266
0.000133225
7.35234e-05
1.73898e-06
-8.37253e-05
-0.000184976
-0.000303993
-0.000443185
-0.000604901
-0.000791733
-0.00100634
-0.00125156
-0.00153024
-0.00184534
-0.00219987
-0.00259675
-0.00303914
-0.00352979
-0.00407178
-0.00466765
-0.00532014
-0.00603149
-0.00680376
-0.00763843
-0.00853675
-0.00949931
-0.0105258
-0.0116153
-0.0127661
-0.0139755
-0.0152393
-0.0165531
-0.0179108
-0.0193056
-0.0207295
-0.0221743
-0.0236305
-0.0250889
-0.0265391
-0.0279716
-0.0293768
-0.0307459
-0.0320704
-0.0333423
-0.0345556
-0.0357041
-0.0367825
-0.0377869
-0.0387121
-0.0395538
-0.0403069
-0.0409635
-0.0415148
-0.0419439
-0.0422284
-0.0423421
-0.0422404
-0.0418683
-0.0411483
-0.0399956
-0.0382731
-0.0358274
-0.0324732
-0.0279721
-0.0220858
-0.0144439
-0.00461176
0.0078343
0.000290584
0.000285205
0.000303593
0.000311034
0.000323602
0.000330214
0.000337719
0.000341295
0.000344065
0.000343609
0.00034138
0.000335906
0.000327748
0.000315759
0.000299916
0.000279144
0.000252929
0.000220073
0.000179661
0.000130264
7.05888e-05
-1.08656e-06
-8.6425e-05
-0.000187475
-0.000306227
-0.00044502
-0.000606249
-0.000792388
-0.00100615
-0.00125027
-0.00152757
-0.00184091
-0.00219324
-0.00258754
-0.00302657
-0.00351331
-0.00405046
-0.00464065
-0.00528628
-0.00598951
-0.00675211
-0.00757556
-0.00846074
-0.00940776
-0.0104165
-0.0114853
-0.0126124
-0.0137944
-0.0150272
-0.0163056
-0.0176236
-0.018973
-0.0203468
-0.0217354
-0.0231288
-0.0245174
-0.0258906
-0.0272381
-0.0285497
-0.0298152
-0.0310254
-0.032171
-0.0332438
-0.0342352
-0.0351391
-0.0359468
-0.0366492
-0.0372397
-0.0377063
-0.0380349
-0.0382117
-0.0382101
-0.0380017
-0.0375511
-0.0368058
-0.035704
-0.0341642
-0.0320899
-0.0293546
-0.0258142
-0.0213042
-0.0156141
-0.00854761
0.000186028
0.0108549
0.0237426
0.000285682
0.000281524
0.000300369
0.000308056
0.000320764
0.000327459
0.000334989
0.000338576
0.000341325
0.000340842
0.000338571
0.000333056
0.000324847
0.000312818
0.000296933
0.000276121
0.000249877
0.000217012
0.000176594
0.000127224
6.76223e-05
-3.97266e-06
-8.91414e-05
-0.000189974
-0.00030841
-0.000446794
-0.000607438
-0.000792851
-0.00100568
-0.00124856
-0.00152431
-0.00183577
-0.00218572
-0.00257706
-0.00301256
-0.00349503
-0.00402694
-0.00461098
-0.00524928
-0.00594371
-0.00669608
-0.00750748
-0.00837856
-0.00930945
-0.0102992
-0.0113464
-0.0124484
-0.0136019
-0.0148026
-0.0160445
-0.017321
-0.0186246
-0.0199468
-0.0212779
-0.022608
-0.0239263
-0.0252223
-0.0264848
-0.0277031
-0.0288657
-0.0299632
-0.0309844
-0.0319197
-0.0327592
-0.033494
-0.0341126
-0.0346037
-0.0349566
-0.035155
-0.0351809
-0.0350152
-0.0346271
-0.0339845
-0.0330431
-0.0317543
-0.030051
-0.0278527
-0.0250648
-0.0215766
-0.017259
-0.0119743
-0.00556156
0.00212673
0.0112854
0.0220942
0.0347579
0.00028082
0.00027783
0.000297127
0.00030505
0.000317892
0.000324665
0.000332218
0.000335811
0.000338533
0.000338019
0.000335704
0.000330139
0.000321877
0.000309802
0.000293873
0.000273018
0.000246744
0.000213856
0.000173455
0.00012411
6.45701e-05
-6.90726e-06
-9.19062e-05
-0.000192483
-0.000310566
-0.000448487
-0.000608486
-0.000793098
-0.00100486
-0.0012464
-0.00152046
-0.00182983
-0.00217719
-0.00256532
-0.00299699
-0.00347474
-0.00400115
-0.00457843
-0.00520875
-0.00589395
-0.00663521
-0.00743387
-0.00829001
-0.00920358
-0.0101734
-0.0111977
-0.0122737
-0.0133976
-0.0145645
-0.0157687
-0.0170027
-0.0182591
-0.0195284
-0.0208013
-0.0220672
-0.0233149
-0.0245332
-0.0257109
-0.0268362
-0.0278975
-0.0288836
-0.0297828
-0.0305843
-0.0312765
-0.031848
-0.0322866
-0.032578
-0.0327082
-0.0326588
-0.0324083
-0.031934
-0.0312044
-0.0301834
-0.0288269
-0.0270875
-0.0248989
-0.0221887
-0.0188719
-0.014852
-0.0100196
-0.00426992
0.00250245
0.0104082
0.0195582
0.0300835
0.0421229
0.000275994
0.00027412
0.000293856
0.000302012
0.000314982
0.000321828
0.000329401
0.000332993
0.000335684
0.000335132
0.000332767
0.000327151
0.000318831
0.000306702
0.000290717
0.000269825
0.000243515
0.000210616
0.000170218
0.000120907
6.14469e-05
-9.89649e-06
-9.47106e-05
-0.000195003
-0.000312705
-0.000450081
-0.000609403
-0.000793099
-0.00100367
-0.00124377
-0.00151599
-0.001823
-0.00216754
-0.00255224
-0.00297971
-0.00345238
-0.00397272
-0.00454277
-0.00516461
-0.00583974
-0.00656941
-0.00735427
-0.00819459
-0.00908974
-0.0100385
-0.0110388
-0.0120875
-0.0131804
-0.0143124
-0.0154772
-0.0166678
-0.0178754
-0.0190909
-0.0203047
-0.0215056
-0.0226822
-0.0238228
-0.0249159
-0.025949
-0.0269101
-0.0277871
-0.0285673
-0.0292396
-0.02979
-0.0302064
-0.0304748
-0.0305792
-0.0305034
-0.0302281
-0.0297297
-0.0289845
-0.0279596
-0.0266188
-0.0249225
-0.0228219
-0.0202587
-0.0171704
-0.0134854
-0.00912326
-0.00400024
0.00195617
0.00881977
0.0166604
0.0255439
0.0355464
0.046739
0.000271209
0.000270385
0.000290554
0.000298939
0.00031203
0.000318946
0.000326531
0.000330116
0.000332772
0.000332181
0.000329756
0.000324084
0.000315704
0.000303512
0.000287472
0.000266533
0.000240191
0.000207276
0.000166882
0.000117621
5.82382e-05
-1.29515e-05
-9.75558e-05
-0.000197528
-0.000314796
-0.000451583
-0.000610149
-0.00079283
-0.00100213
-0.00124059
-0.00151075
-0.0018153
-0.00215671
-0.00253767
-0.0029605
-0.00342776
-0.00394149
-0.00450385
-0.00511645
-0.00578083
-0.00649792
-0.00726821
-0.00809161
-0.00896734
-0.00989401
-0.010869
-0.0118889
-0.0129496
-0.0140453
-0.0151695
-0.016315
-0.0174728
-0.0186336
-0.0197873
-0.0209223
-0.0220275
-0.0230906
-0.0240996
-0.0250418
-0.0259045
-0.0266749
-0.0273404
-0.0278883
-0.0283039
-0.028574
-0.0286837
-0.028616
-0.0283539
-0.0278768
-0.027161
-0.0261827
-0.0249102
-0.0233093
-0.0213428
-0.0189674
-0.0161312
-0.012784
-0.00887
-0.00432582
0.000908273
0.00687908
0.0136415
0.0212303
0.0296857
0.0390291
0.0492827
0.000266466
0.000266633
0.00028722
0.000295826
0.000309034
0.000316015
0.000323604
0.00032718
0.000329793
0.000329156
0.000326668
0.000320935
0.000312486
0.000300229
0.000284131
0.000263138
0.000236759
0.000203831
0.000163446
0.000114235
5.49508e-05
-1.60878e-05
-0.000100431
-0.000200071
-0.000316844
-0.000452998
-0.000610681
-0.00079227
-0.00100017
-0.00123682
-0.0015048
-0.00180656
-0.0021446
-0.00252139
-0.00293933
-0.00340058
-0.00390726
-0.00446126
-0.00506398
-0.00571678
-0.00642045
-0.00717515
-0.00798066
-0.00883591
-0.00973907
-0.0106874
-0.0116774
-0.0127041
-0.0137622
-0.0148447
-0.0159439
-0.0170507
-0.0181556
-0.0192483
-0.0203173
-0.0213509
-0.0223367
-0.0232627
-0.0241155
-0.0248822
-0.02555
-0.0261052
-0.0265345
-0.0268231
-0.0269571
-0.0269214
-0.026698
-0.0262701
-0.0256167
-0.0247146
-0.0235406
-0.022067
-0.0202621
-0.0180895
-0.0155166
-0.0124994
-0.00899931
-0.00496901
-0.000371637
0.0048405
0.010695
0.0172193
0.0244328
0.0323417
0.040946
0.0502438
0.000261754
0.000262862
0.000283854
0.000292673
0.000305992
0.000313028
0.000320618
0.000324179
0.000326743
0.000326053
0.000323496
0.000317695
0.00030917
0.000296848
0.00028068
0.000259639
0.000233219
0.000200269
0.000159899
0.000110743
5.15709e-05
-1.92861e-05
-0.000103371
-0.000202603
-0.00031886
-0.00045428
-0.000611044
-0.000791389
-0.000997733
-0.00123244
-0.00149797
-0.00179669
-0.00213107
-0.00250341
-0.00291593
-0.00337079
-0.00386981
-0.00441469
-0.0050069
-0.00564737
-0.00633657
-0.00707474
-0.00786124
-0.0086947
-0.00957308
-0.0104936
-0.0114521
-0.0124438
-0.0134627
-0.014502
-0.0155536
-0.0166085
-0.0176568
-0.0186881
-0.0196906
-0.0206527
-0.0215622
-0.0224063
-0.0231718
-0.0238458
-0.024415
-0.0248652
-0.025183
-0.0253539
-0.0253633
-0.0251957
-0.0248338
-0.0242605
-0.0234558
-0.022398
-0.0210663
-0.0194352
-0.0174756
-0.0151595
-0.0124587
-0.00933782
-0.0057695
-0.0017185
0.00283698
0.00792704
0.0135668
0.019768
0.0265235
0.0338341
0.0416687
0.0500173
0.000257085
0.000259068
0.000280452
0.000289476
0.000302896
0.000309986
0.000317569
0.000321108
0.000323616
0.000322867
0.000320235
0.000314356
0.000305752
0.000293355
0.000277119
0.000256013
0.000229554
0.000196588
0.000156232
0.000107142
4.80838e-05
-2.25664e-05
-0.000106345
-0.000205149
-0.000320813
-0.000455456
-0.000611153
-0.000790187
-0.000994796
-0.00122739
-0.00149021
-0.00178567
-0.00211602
-0.00248352
-0.00289022
-0.00333804
-0.00382887
-0.00436402
-0.00494484
-0.00557204
-0.00624597
-0.00696647
-0.00773275
-0.00854322
-0.00939571
-0.0102869
-0.0112126
-0.0121677
-0.0131464
-0.0141411
-0.0151441
-0.0161459
-0.0171369
-0.0181065
-0.0190427
-0.019934
-0.0207681
-0.0215322
-0.0222131
-0.0227979
-0.0232729
-0.0236243
-0.0238386
-0.0239016
-0.0237982
-0.023513
-0.0230307
-0.0223333
-0.0214024
-0.0202201
-0.0187661
-0.0170181
-0.0149513
-0.0125449
-0.00977641
-0.00661811
-0.00305326
0.000942821
0.00538098
0.0102768
0.0156321
0.0214486
0.0277094
0.034393
0.0414718
0.0489212
0.000252452
0.00025524
0.000277011
0.000286229
0.000299744
0.00030688
0.000314449
0.000317958
0.000320406
0.00031959
0.000316877
0.000310915
0.000302222
0.000289744
0.000273428
0.000252267
0.000225753
0.000192777
0.000152441
0.000103419
4.44998e-05
-2.59243e-05
-0.000109375
-0.000207709
-0.000322706
-0.000456472
-0.000611042
-0.000788589
-0.000991362
-0.00122157
-0.0014815
-0.00177337
-0.00209937
-0.00246159
-0.00286198
-0.0033023
-0.00378419
-0.00430895
-0.00487754
-0.00549055
-0.00614818
-0.00685005
-0.00759488
-0.00838111
-0.0092063
-0.0100668
-0.0109583
-0.0118757
-0.0128126
-0.0137618
-0.0147151
-0.0156631
-0.0165963
-0.0175039
-0.0183741
-0.0191956
-0.0199555
-0.020642
-0.0212415
-0.0217411
-0.0221275
-0.022387
-0.0225063
-0.0224716
-0.0222679
-0.0218808
-0.0212951
-0.0204953
-0.0194644
-0.0181863
-0.0166435
-0.0148161
-0.012687
-0.0102386
-0.00745412
-0.00431451
-0.000813209
0.00306981
0.00733143
0.011981
0.0170058
0.0224035
0.0281505
0.0342199
0.0405728
0.0471867
0.000247846
0.000251391
0.000273527
0.00028293
0.000296535
0.000303706
0.000311255
0.000314728
0.000317107
0.000316218
0.000313411
0.000307364
0.000298574
0.000286007
0.000269608
0.000248378
0.000221821
0.000188823
0.000148513
9.95695e-05
4.08058e-05
-2.9374e-05
-0.000112446
-0.000210257
-0.000324543
-0.000457342
-0.000610672
-0.000786594
-0.000987304
-0.00121496
-0.00147172
-0.00175973
-0.00208098
-0.00243747
-0.00283103
-0.0032633
-0.00373558
-0.00424916
-0.00480472
-0.00540268
-0.00604297
-0.00672488
-0.00744722
-0.00820797
-0.00900439
-0.00983299
-0.010689
-0.0115673
-0.0124613
-0.0133638
-0.0142665
-0.0151602
-0.0160352
-0.0168809
-0.0176858
-0.0184382
-0.0191263
-0.0197378
-0.0202594
-0.0206788
-0.0209826
-0.0211575
-0.0211909
-0.0210694
-0.0207782
-0.020305
-0.0196345
-0.0187534
-0.0176472
-0.0163005
-0.0147004
-0.0128298
-0.0106772
-0.00822849
-0.00547426
-0.00240145
0.000991253
0.00471245
0.00875553
0.0131205
0.0177907
0.0227556
0.0279888
0.0334625
0.0391437
0.0450042
0.000243267
0.000247512
0.000269995
0.000279576
0.00029326
0.00030046
0.000307981
0.000311411
0.000313712
0.000312743
0.000309837
0.000303691
0.0002948
0.000282137
0.000265648
0.000244343
0.00021774
0.000184724
0.000144442
9.5589e-05
3.69941e-05
-3.29081e-05
-0.000115579
-0.000212799
-0.000326305
-0.000458057
-0.000609983
-0.000784177
-0.000982643
-0.00120751
-0.00146083
-0.00174459
-0.00206072
-0.00241108
-0.00279726
-0.00322078
-0.00368287
-0.00418444
-0.0047261
-0.00530799
-0.00592979
-0.00659074
-0.00728934
-0.00802329
-0.00878984
-0.00958507
-0.0104043
-0.0112423
-0.0120923
-0.0129471
-0.0137986
-0.0146374
-0.0154541
-0.0162383
-0.0169787
-0.017664
-0.0182824
-0.0188219
-0.0192697
-0.0196139
-0.0198416
-0.01994
-0.0198971
-0.0197
-0.0193352
-0.0187909
-0.0180547
-0.0171134
-0.0159546
-0.0145666
-0.012938
-0.0110564
-0.00891585
-0.00650274
-0.00381619
-0.000848608
0.00239703
0.00592338
0.00971969
0.0137792
0.0180827
0.0226167
0.0273564
0.0322699
0.0373291
0.0425025
0.000238714
0.0002436
0.000266415
0.000276163
0.000289917
0.000297137
0.000304622
0.000308
0.000310216
0.000309157
0.000306146
0.000299891
0.00029089
0.000278122
0.000261542
0.000240158
0.000213499
0.000180472
0.000140217
9.14732e-05
3.30617e-05
-3.65355e-05
-0.000118755
-0.000215344
-0.000327977
-0.000458574
-0.000609011
-0.000781255
-0.000977319
-0.00119915
-0.00144871
-0.00172789
-0.00203851
-0.0023822
-0.00276048
-0.00317465
-0.00362577
-0.00411451
-0.0046413
-0.00520619
-0.00580852
-0.00644737
-0.00712094
-0.00782689
-0.0085622
-0.00932283
-0.0101041
-0.0109006
-0.0117056
-0.0125119
-0.0133115
-0.0140953
-0.0148539
-0.0155773
-0.0162544
-0.0168744
-0.0174255
-0.0178966
-0.0182752
-0.0185499
-0.0187086
-0.0187389
-0.0186294
-0.0183681
-0.0179435
-0.017344
-0.0165594
-0.0155778
-0.0143891
-0.0129846
-0.011355
-0.0094916
-0.00739186
-0.00504683
-0.00245931
0.000374236
0.00344617
0.00675477
0.0102847
0.0140299
0.0179684
0.0220821
0.0263493
0.0307408
0.0352319
0.039797
0.000234193
0.000239655
0.000262782
0.000272685
0.000286499
0.000293733
0.000301172
0.000304489
0.000306611
0.000305454
0.000302326
0.00029596
0.000286837
0.000273961
0.000257273
0.000235813
0.000209093
0.000176054
0.000135838
8.72025e-05
2.90061e-05
-4.02552e-05
-0.000121977
-0.000217863
-0.000329551
-0.000458889
-0.000607696
-0.00077784
-0.000971262
-0.00118979
-0.00143531
-0.00170955
-0.00201419
-0.00235074
-0.00272053
-0.00312469
-0.00356405
-0.00403917
-0.00455026
-0.00509706
-0.00567886
-0.00629438
-0.00694174
-0.00761848
-0.00832131
-0.00904616
-0.00978836
-0.0105422
-0.0113014
-0.0120586
-0.0128059
-0.0135347
-0.0142357
-0.014899
-0.0155145
-0.0160711
-0.0165581
-0.0169646
-0.017279
-0.0174902
-0.0175869
-0.0175574
-0.0173918
-0.0170781
-0.0166069
-0.0159681
-0.0151518
-0.014149
-0.0129516
-0.0115529
-0.00994624
-0.0081267
-0.00609371
-0.00384197
-0.0013787
0.00129763
0.00417707
0.00725284
0.0105088
0.0139384
0.0175184
0.021231
0.0250562
0.0289661
0.0329385
0.0369546
0.00022969
0.000235675
0.000259093
0.000269139
0.000283003
0.000290241
0.000297624
0.000300874
0.000302892
0.000301628
0.000298375
0.000291885
0.000282633
0.000269638
0.000252841
0.000231295
0.000204519
0.00017146
0.000131296
8.27885e-05
2.48204e-05
-4.40681e-05
-0.000125242
-0.000220372
-0.000331013
-0.00045898
-0.000606
-0.000773878
-0.000964411
-0.00117941
-0.00142053
-0.00168947
-0.00198768
-0.00231655
-0.00267725
-0.00307069
-0.00349758
-0.00395823
-0.00445263
-0.00498042
-0.00554053
-0.00613162
-0.00675163
-0.00739795
-0.0080671
-0.00875512
-0.00945708
-0.0101675
-0.0108801
-0.0115876
-0.0122825
-0.0129564
-0.0136003
-0.014205
-0.0147604
-0.0152563
-0.0156825
-0.0160285
-0.0162837
-0.0164377
-0.0164797
-0.0163993
-0.0161876
-0.0158336
-0.0153289
-0.0146652
-0.0138337
-0.0128274
-0.0116407
-0.010268
-0.00870571
-0.00695161
-0.00500699
-0.00287009
-0.000549339
0.00195307
0.0046263
0.00746102
0.0104423
0.0135597
0.0167928
0.0201241
0.0235364
0.0270046
0.0305141
0.0340449
0.00022521
0.000231655
0.000255342
0.00026552
0.000279422
0.000286654
0.000293975
0.000297146
0.00029905
0.00029767
0.000294281
0.000287658
0.00027827
0.000265147
0.000248234
0.000226592
0.000199758
0.000166691
0.000126578
7.82198e-05
2.05048e-05
-4.79692e-05
-0.000128561
-0.000222838
-0.000332363
-0.000458827
-0.000603901
-0.00076931
-0.00095676
-0.00116789
-0.00140431
-0.00166751
-0.00195883
-0.00227951
-0.00263048
-0.00301254
-0.00342615
-0.00387148
-0.00434831
-0.00485597
-0.00539339
-0.00595898
-0.0065505
-0.00716522
-0.00779969
-0.0084497
-0.0091106
-0.0097768
-0.0104422
-0.0110998
-0.0117424
-0.0123618
-0.0129496
-0.0134968
-0.0139942
-0.0144321
-0.0148009
-0.0150909
-0.0152921
-0.0153952
-0.0153901
-0.0152678
-0.0150197
-0.0146366
-0.0141112
-0.013436
-0.0126049
-0.0116117
-0.0104528
-0.009124
-0.00762508
-0.00595454
-0.00411621
-0.00211023
5.26855e-05
0.00237056
0.00482913
0.00742091
0.0101291
0.0129419
0.0158438
0.0188164
0.0218485
0.0249129
0.0279998
0.0310971
0.000220747
0.000227594
0.000251528
0.000261823
0.000275754
0.000282969
0.000290215
0.000293297
0.000295079
0.000293572
0.000290037
0.000283272
0.000273737
0.000260477
0.00024344
0.000221702
0.00019481
0.000161735
0.000121684
7.34816e-05
1.60598e-05
-5.19724e-05
-0.000131901
-0.000225278
-0.000333559
-0.000458398
-0.000601375
-0.000764122
-0.00094821
-0.00115521
-0.00138657
-0.00164361
-0.00192757
-0.00223946
-0.00258012
-0.00295007
-0.00334965
-0.00377879
-0.00423707
-0.00472367
-0.00523738
-0.00577635
-0.00633835
-0.00692041
-0.00751913
-0.00813034
-0.0087493
-0.00937064
-0.00998847
-0.0105961
-0.0111865
-0.0117521
-0.0122847
-0.0127761
-0.0132178
-0.0136005
-0.0139156
-0.0141541
-0.0143068
-0.0143654
-0.0143204
-0.0141647
-0.0138896
-0.0134882
-0.0129538
-0.0122805
-0.0114632
-0.0104979
-0.00938186
-0.00811309
-0.00669307
-0.00512121
-0.00340327
-0.00154118
0.000454839
0.00257995
0.00482076
0.00716942
0.00961029
0.0121304
0.0147185
0.0173558
0.0200351
0.0227322
0.0254427
0.0281511
0.000216303
0.000223489
0.000247645
0.000258041
0.000271991
0.000279178
0.000286339
0.000289323
0.000290972
0.000289326
0.000285637
0.000278719
0.000269025
0.000255622
0.000238454
0.000216618
0.000189659
0.000156581
0.000116606
6.85823e-05
1.14735e-05
-5.60662e-05
-0.000135279
-0.000227652
-0.000334604
-0.000457677
-0.000598386
-0.000758241
-0.000938734
-0.00114128
-0.0013672
-0.00161768
-0.00189377
-0.00219636
-0.00252601
-0.00288318
-0.00326793
-0.00368003
-0.00411888
-0.00458351
-0.00507247
-0.00558387
-0.00611528
-0.00666374
-0.00722581
-0.00779741
-0.00837378
-0.00894981
-0.00951984
-0.0100775
-0.0106161
-0.0111286
-0.0116075
-0.012045
-0.0124332
-0.0127639
-0.0130289
-0.0132203
-0.0133299
-0.01335
-0.0132726
-0.0130912
-0.0127985
-0.0123887
-0.011856
-0.0111963
-0.0104052
-0.00948025
-0.00842043
-0.00722519
-0.00589655
-0.00443541
-0.00284873
-0.00113903
0.00068282
0.00261151
0.00463438
0.00674311
0.00892404
0.0111651
0.0134569
0.0157814
0.0181361
0.0204945
0.0228607
0.0252229
0.00021188
0.000219336
0.000243689
0.000254173
0.000268126
0.000275275
0.00028234
0.000285215
0.000286718
0.000284925
0.000281069
0.000273988
0.000264128
0.000250573
0.000233267
0.000211327
0.000184303
0.000151228
0.000111335
6.35139e-05
6.75183e-06
-6.02464e-05
-0.00013868
-0.000229976
-0.000335465
-0.000456639
-0.000594893
-0.000751645
-0.000928271
-0.00112604
-0.00134615
-0.00158965
-0.00185737
-0.00215004
-0.00246811
-0.00281178
-0.00318093
-0.00357516
-0.00399371
-0.00443544
-0.00489871
-0.00538158
-0.00588151
-0.00639553
-0.00692019
-0.00745144
-0.00798475
-0.00851518
-0.00903739
-0.00954532
-0.0100328
-0.0104933
-0.0109198
-0.0113052
-0.0116426
-0.0119242
-0.0121431
-0.0122919
-0.0123634
-0.012351
-0.012248
-0.0120483
-0.0117462
-0.0113366
-0.0108154
-0.0101792
-0.00942492
-0.00855184
-0.00755928
-0.00644783
-0.00522048
-0.00387926
-0.00243155
-0.000880126
0.00076373
0.00249535
0.00430284
0.0061775
0.00810898
0.0100836
0.0120965
0.0141296
0.0161843
0.0182348
0.02029
0.0223353
0.000207471
0.000215137
0.000239654
0.000250209
0.000264154
0.000271252
0.000278212
0.000280966
0.000282313
0.000280361
0.000276326
0.00026907
0.000259035
0.000245319
0.000227869
0.000205816
0.000178732
0.000145663
0.000105869
5.82716e-05
1.89088e-06
-6.4512e-05
-0.000142101
-0.000232217
-0.000336139
-0.000455253
-0.000590865
-0.00074429
-0.000916764
-0.00110944
-0.00132336
-0.00155939
-0.00181827
-0.00210048
-0.00240631
-0.00273578
-0.00308858
-0.00346419
-0.00386156
-0.00427952
-0.00471628
-0.00516977
-0.00563739
-0.00611623
-0.00660282
-0.0070932
-0.00758312
-0.00806788
-0.00854234
-0.00900107
-0.00943815
-0.00984777
-0.0102234
-0.0105589
-0.010848
-0.0110837
-0.01126
-0.0113704
-0.0114087
-0.0113694
-0.0112467
-0.0110354
-0.0107311
-0.0103298
-0.00982829
-0.00922424
-0.00851607
-0.00770318
-0.0067863
-0.00576658
-0.00464823
-0.00343295
-0.00212889
-0.000738874
0.000726853
0.00226338
0.00385982
0.00550812
0.00720039
0.00892307
0.0106742
0.012436
0.0142121
0.0159789
0.0177496
0.019512
0.000203076
0.000210887
0.000235536
0.000246147
0.000260069
0.000267105
0.000273945
0.000276567
0.000277746
0.000275624
0.0002714
0.000263959
0.000253736
0.000239849
0.000222247
0.000200082
0.000172937
0.000139881
0.000100202
5.28573e-05
-3.10358e-06
-6.88639e-05
-0.000145526
-0.000234371
-0.000336598
-0.000453493
-0.000586273
-0.000736129
-0.000904177
-0.00109143
-0.00129876
-0.00152691
-0.00177642
-0.00204761
-0.00234059
-0.00265517
-0.00299094
-0.0033471
-0.0037226
-0.00411596
-0.00452542
-0.00494876
-0.00538343
-0.00582644
-0.00627448
-0.00672371
-0.00717009
-0.00760921
-0.00803626
-0.00844634
-0.008834
-0.00919396
-0.0095205
-0.00980824
-0.0100513
-0.0102441
-0.0103813
-0.0104573
-0.0104669
-0.0104055
-0.0102684
-0.0100515
-0.00975109
-0.00936472
-0.00888974
-0.0083248
-0.00766939
-0.00692305
-0.00608825
-0.00516587
-0.00416084
-0.00307484
-0.00191608
-0.000687173
0.000602557
0.00194808
0.00333996
0.00477089
0.00623575
0.00772094
0.00922661
0.0107363
0.0122566
0.0137644
0.0152737
0.0167699
0.000198692
0.000206579
0.000231333
0.00024198
0.000255865
0.000262825
0.000269533
0.000272011
0.00027301
0.000270704
0.000266278
0.000258643
0.000248219
0.000234154
0.000216395
0.000194117
0.000166911
0.00013388
9.43316e-05
4.72594e-05
-8.23459e-06
-7.32909e-05
-0.000148949
-0.000236422
-0.000336817
-0.000451333
-0.000581078
-0.000727128
-0.000890464
-0.00107194
-0.00127231
-0.00149214
-0.00173177
-0.00199141
-0.00227092
-0.00257001
-0.00288804
-0.00322409
-0.00357693
-0.00394506
-0.00432649
-0.00471911
-0.00512022
-0.00552698
-0.0059361
-0.00634403
-0.00674691
-0.00714061
-0.0075208
-0.00788294
-0.00822218
-0.00853393
-0.00881318
-0.00905515