/*--------------------------------*- C++ -*----------------------------------*\
  =========                 |
  \\      /  F ield         | OpenFOAM: The Open Source CFD Toolbox
   \\    /   O peration     | Website:  https://openfoam.org
    \\  /    A nd           | Version:  9
     \\/     M anipulation  |
\*---------------------------------------------------------------------------*/
FoamFile
{
    format      ascii;
    class       surfaceScalarField;
    location    "3000";
    object      phi;
}
// * * * * * * * * * * * * * * * * * * * * * * * * * * * * * * * * * * * * * //

dimensions      [0 3 -1 0 0 0 0];

internalField   nonuniform List<scalar> 
26965
(
3.46503e-05
0.490479
-0.490513
3.45847e-05
0.462796
-0.462796
3.44791e-05
0.436615
-0.436615
3.43423e-05
0.411882
-0.411882
3.41842e-05
0.388595
-0.388595
3.40103e-05
0.366621
-0.36662
3.38219e-05
0.345853
-0.345853
6.81854e-05
0.326261
-0.326295
6.79764e-05
0.307808
-0.307807
3.31955e-05
0.290426
-0.290391
6.75335e-05
0.273942
-0.273976
6.73029e-05
0.25846
-0.25846
6.70654e-05
0.243808
-0.243808
0.000101391
0.23002
-0.230054
6.65819e-05
0.217027
-0.216992
8.70777e-05
0.204721
-0.204742
9.37477e-05
0.193139
-0.193145
9.69663e-05
0.182213
-0.182216
0.000107102
0.171899
-0.171909
0.000110335
0.162177
-0.16218
0.000120495
0.152997
-0.153007
0.000127214
0.144344
-0.14435
0.000133955
0.136178
-0.136184
0.000140725
0.128478
-0.128485
0.000154437
0.121208
-0.121222
0.00016128
0.114357
-0.114364
0.000171624
0.107893
-0.107904
0.000185485
0.101793
-0.101807
0.000195947
0.0960424
-0.0960529
0.000206487
0.0906173
-0.0906278
0.000220566
0.0855003
-0.0855144
0.000234737
0.0806708
-0.080685
0.000249008
0.0761219
-0.0761362
0.000263399
0.0718259
-0.0718403
0.000281377
0.067776
-0.0677939
0.000299494
0.0639581
-0.0639762
0.000317766
0.0603585
-0.0603768
0.000336205
0.0569599
-0.0569783
0.000354827
0.0537552
-0.0537738
0.00037712
0.050734
-0.0507563
0.000403107
0.0478825
-0.0479085
0.000425869
0.0452005
-0.0452233
0.000452377
0.0426637
-0.0426902
0.000482658
0.040272
-0.0403023
0.000509794
0.0380185
-0.0380456
0.000540781
0.0358925
-0.0359235
0.00057218
0.0338873
-0.0339187
0.00060751
0.0319956
-0.0320309
0.000643347
0.0302105
-0.0302464
0.000676268
0.0285285
-0.0285615
0.000716756
0.0269392
-0.0269797
0.000754446
0.0254425
-0.0254802
0.000799859
0.0240245
-0.02407
0.000839067
0.0226958
-0.022735
0.000886174
0.0214329
-0.02148
0.000932381
0.0202473
-0.0202935
0.000980706
0.0191266
-0.019175
0.00103042
0.0180698
-0.0181196
0.00108164
0.0170727
-0.017124
0.00113403
0.0161325
-0.0161849
0.00118809
0.0152455
-0.0152995
0.00124311
0.0144096
-0.0144646
0.00129963
0.0136217
-0.0136782
0.0013567
0.0128798
-0.0129369
0.0014154
0.0121808
-0.0122395
0.00147514
0.0115231
-0.0115829
0.00153552
0.0109053
-0.0109657
0.00159717
0.010324
-0.0103857
0.00166018
0.00977936
-0.00984237
0.00172502
0.0092685
-0.00933333
0.00179111
0.00879104
-0.00885714
0.00185956
0.00834508
-0.00841352
0.00193081
0.00792969
-0.00800095
0.00200587
0.00754452
-0.00761958
0.00208575
0.00718964
-0.00726952
0.00217201
0.00686291
-0.00694917
0.00226535
0.00656223
-0.00665556
0.00236968
0.00628353
-0.00638786
0.00249844
0.00603852
-0.00616728
0.00266613
0.00585654
-0.00602423
0.00286194
0.00573872
-0.00593454
0.00302874
0.00561512
-0.00578192
0.00307905
0.00537129
-0.00542159
0.00295742
0.00492371
-0.00480208
0.00265193
0.00426844
-0.00396295
0.00344295
-0.00296436
3.46512e-05
0.490444
3.45839e-05
0.462796
3.44756e-05
0.436615
3.43359e-05
0.411882
3.41751e-05
0.388595
6.85597e-05
0.366586
6.83688e-05
0.345854
3.3604e-05
0.326296
3.33912e-05
0.307808
6.77335e-05
0.290391
6.75045e-05
0.273942
6.72704e-05
0.25846
6.70306e-05
0.243808
6.67867e-05
0.23002
0.000101106
0.216992
8.35748e-05
0.204739
8.67838e-05
0.193135
9.69093e-05
0.182203
0.000100129
0.171896
0.000110269
0.162167
0.000113513
0.152994
0.000120224
0.144337
0.000126963
0.136171
0.00013718
0.128468
0.000143978
0.121202
0.000154275
0.114347
0.000164615
0.107883
0.000175015
0.101783
0.000185478
0.096032
0.00019947
0.0906033
0.00021009
0.0854897
0.000224263
0.0806567
0.000238545
0.0761077
0.000252937
0.0718116
0.000267463
0.0677614
0.000285592
0.06394
0.000307345
0.0603368
0.000325804
0.0569414
0.000344451
0.0537366
0.000366771
0.0507117
0.000385847
0.0478634
0.000412116
0.0451742
0.000438664
0.0426371
0.000462034
0.0402486
0.000489214
0.0379913
0.000516764
0.035865
0.00054821
0.0338558
0.000580114
0.0319637
0.000612505
0.0301781
0.000648944
0.0284921
0.00068597
0.0269022
0.000723692
0.0254048
0.000758609
0.0239896
0.00080125
0.0226531
0.000843022
0.0213912
0.000886469
0.0202039
0.000930806
0.0190823
0.000976549
0.0180241
0.0010237
0.0170256
0.00107205
0.0160842
0.00112107
0.0151964
0.00117128
0.0143594
0.00122212
0.0135709
0.00127453
0.0128274
0.00132721
0.0121281
0.00138085
0.0114695
0.00143553
0.0108506
0.00149051
0.010269
0.00154721
0.00972266
0.00160463
0.00921108
0.00166428
0.00873139
0.00172585
0.00828351
0.00178951
0.00786604
0.0018572
0.00747683
0.00192981
0.00711704
0.00200723
0.00678548
0.00209193
0.00647753
0.00218486
0.0061906
0.00229402
0.00592935
0.00243601
0.00571455
0.00261558
0.00555915
0.00280392
0.00542677
0.00293789
0.00523732
0.00295484
0.00490676
0.00281941
0.00440387
0.0037349
3.46533e-05
0.490409
3.45831e-05
0.462796
3.44714e-05
0.436615
3.43282e-05
0.411882
3.41637e-05
0.388595
3.3983e-05
0.366586
3.37876e-05
0.345854
6.81442e-05
0.326261
6.79271e-05
0.307808
6.77021e-05
0.290391
6.747e-05
0.273942
6.72289e-05
0.258461
6.69844e-05
0.243808
6.67339e-05
0.23002
6.64836e-05
0.216992
8.35136e-05
0.204722
9.01741e-05
0.193129
9.33806e-05
0.1822
0.000100052
0.171889
0.000103275
0.162163
0.000113421
0.152984
0.000120133
0.14433
0.000126861
0.136164
0.000137079
0.128458
0.00014387
0.121195
0.000154163
0.114337
0.0001645
0.107873
0.000171438
0.101776
0.000185356
0.0960181
0.000192437
0.0905962
0.000209976
0.0854721
0.000220694
0.0806459
0.00023498
0.0760934
0.000249388
0.0717971
0.000263926
0.0677469
0.000282074
0.0639218
0.000296917
0.0603219
0.000315401
0.0569229
0.000337545
0.0537144
0.000356433
0.0506928
0.000379021
0.0478408
0.000401865
0.0451514
0.000424978
0.042614
0.000451886
0.0402217
0.000475648
0.0379675
0.000506734
0.0358339
0.000534763
0.0338278
0.000563232
0.0319352
0.000595689
0.0301457
0.000628698
0.0284591
0.000662312
0.0268686
0.000696529
0.0253706
0.00073499
0.0239512
0.000774233
0.0226139
0.000812172
0.0213532
0.000852365
0.0201637
0.000893867
0.0190408
0.000936751
0.0179812
0.000979961
0.0169824
0.00102398
0.0160401
0.00106952
0.0151509
0.00111532
0.0143136
0.00116219
0.013524
0.00120919
0.0127804
0.00125687
0.0120805
0.00130528
0.0114211
0.00135426
0.0108017
0.00140404
0.0102193
0.0014547
0.009672
0.00150642
0.00915935
0.0015593
0.00867851
0.00161397
0.00822884
0.00167171
0.0078083
0.00173138
0.00741716
0.00179633
0.00705208
0.0018665
0.00671531
0.00194218
0.00640185
0.00202462
0.00610816
0.00211853
0.00583545
0.002238
0.00559507
0.00239453
0.00540263
0.00257635
0.00524496
0.00274409
0.00506957
0.00284174
0.00480911
0.00282617
0.00441944
0.00389161
3.46558e-05
0.490375
3.45822e-05
0.462796
6.90258e-05
0.43658
3.43191e-05
0.411917
6.87107e-05
0.388561
3.39643e-05
0.366621
6.83267e-05
0.345819
3.35522e-05
0.326296
3.33311e-05
0.307808
6.7663e-05
0.290357
3.28602e-05
0.273977
6.71802e-05
0.258426
6.69286e-05
0.243808
6.6674e-05
0.23002
6.6414e-05
0.216993
8.34377e-05
0.204705
8.66373e-05
0.193126
9.32966e-05
0.182193
9.99588e-05
0.171883
0.000106632
0.162157
0.000113318
0.152977
0.000120018
0.144323
0.000126746
0.136157
0.000133498
0.128451
0.000143742
0.121185
0.000150568
0.11433
0.000160906
0.107862
0.000171297
0.101765
0.000181759
0.0960076
0.000195758
0.0905822
0.000206384
0.0854615
0.000217108
0.0806352
0.000231406
0.0760791
0.000249287
0.0717793
0.000263842
0.0677323
0.000278549
0.0639071
0.000296884
0.0603036
0.000315401
0.0569044
0.000334115
0.0536957
0.000353048
0.0506739
0.000375685
0.0478182
0.000398582
0.0451285
0.000421769
0.0425908
0.000445258
0.0401983
0.000472584
0.0379402
0.000496802
0.0358097
0.000524893
0.0337997
0.000556938
0.0319032
0.000586
0.0301166
0.000615588
0.0284295
0.000649266
0.0268349
0.000687098
0.0253328
0.000722109
0.0239162
0.000754415
0.0225816
0.00079237
0.0213153
0.000830552
0.0201255
0.000869279
0.0190021
0.000908598
0.0179419
0.000948984
0.016942
0.000990517
0.0159986
0.00103168
0.0151097
0.00107362
0.0142717
0.00111604
0.0134816
0.00115912
0.0127373
0.00120252
0.0120371
0.00124614
0.0113775
0.00129064
0.0107572
0.00133534
0.0101746
0.00138069
0.00962666
0.00142701
0.00911303
0.00147475
0.00863078
0.0015241
0.00817948
0.00157523
0.00775717
0.00163003
0.00736236
0.00168776
0.00699436
0.00175027
0.0066528
0.00181848
0.00633364
0.00189274
0.0060339
0.0019758
0.00575239
0.0020761
0.00549478
0.00220571
0.00527301
0.00236429
0.00508638
0.00252744
0.00490643
0.00265634
0.00468021
0.00270859
0.00436719
0.00394737
1.01988e-07
0.490375
3.45811e-05
0.462761
3.44609e-05
0.436581
3.43083e-05
0.411917
3.4134e-05
0.388561
6.85042e-05
0.366587
3.37366e-05
0.345854
6.80822e-05
0.326262
6.78538e-05
0.307808
3.30536e-05
0.290392
6.73722e-05
0.273943
6.71201e-05
0.258426
6.68616e-05
0.243809
6.65999e-05
0.230021
0.000100901
0.216958
8.33533e-05
0.204722
8.99979e-05
0.193119
9.31903e-05
0.18219
9.98475e-05
0.171876
0.000106513
0.16215
0.000113189
0.152971
0.000119888
0.144317
0.00013006
0.136147
0.000136809
0.128445
0.000143589
0.121178
0.00015387
0.114319
0.000164204
0.107852
0.000174598
0.101755
0.00018506
0.0959971
0.000195598
0.0905717
0.000206229
0.0854509
0.000223887
0.0806176
0.000238193
0.0760648
0.000249169
0.0717683
0.000267211
0.0677143
0.000281943
0.0638924
0.000300312
0.0602852
0.000318869
0.0568859
0.000337631
0.0536769
0.000356615
0.0506549
0.000379316
0.0477955
0.00039881
0.045109
0.000422069
0.0425676
0.000449126
0.0401712
0.000473051
0.0379163
0.000500839
0.0357819
0.000529065
0.0337715
0.000554255
0.031878
0.000586907
0.030084
0.00061662
0.0283998
0.00064693
0.0268046
0.00067789
0.0253018
0.000713021
0.023881
0.000748831
0.0225458
0.000783073
0.021281
0.000818842
0.0200897
0.00085548
0.0189654
0.000892397
0.017905
0.000930012
0.0169044
0.000967966
0.0159607
0.00100605
0.0150717
0.00104495
0.0142328
0.00108415
0.0134424
0.00112306
0.0126984
0.00116235
0.0119978
0.00120197
0.0113378
0.0012419
0.0107172
0.00128236
0.0101341
0.00132322
0.00958579
0.00136511
0.00907114
0.00140788
0.008588
0.00145229
0.00813507
0.00149834
0.00771113
0.00154697
0.00731373
0.00159867
0.00694265
0.00165526
0.00659622
0.00171674
0.00627215
0.00178251
0.00596814
0.00185517
0.00567973
0.0019396
0.00541035
0.00204448
0.00516813
0.00217411
0.00495674
0.00231965
0.00476089
0.0024508
0.00454906
0.0025354
0.00428259
0.00393977
3.46612e-05
0.49034
3.45797e-05
0.462761
3.44543e-05
0.436581
6.88563e-05
0.411883
3.41153e-05
0.388596
3.39178e-05
0.366587
3.37051e-05
0.345854
3.34805e-05
0.326262
6.78076e-05
0.307774
6.75637e-05
0.290392
6.73111e-05
0.273943
6.70513e-05
0.258427
6.67864e-05
0.243809
0.000101081
0.229986
6.62415e-05
0.216993
8.67042e-05
0.204702
8.98878e-05
0.193116
9.65311e-05
0.182183
0.000103177
0.171869
0.000109832
0.162143
0.000116502
0.152964
0.000126644
0.144307
0.000133357
0.13614
0.000140096
0.128438
0.000150332
0.121168
0.000160608
0.114309
0.000167481
0.107845
0.000181329
0.101741
0.000188334
0.0959901
0.000202339
0.0905576
0.000216438
0.0854368
0.000227182
0.0806068
0.000241508
0.0760504
0.000255963
0.0717538
0.000270567
0.0676997
0.000288795
0.0638742
0.000307203
0.0602668
0.000325806
0.0568673
0.000344621
0.0536581
0.000367139
0.0506324
0.000386439
0.0477762
0.000409487
0.0450859
0.000432839
0.0425442
0.000453045
0.040151
0.000480557
0.0378888
0.000508466
0.035754
0.000533324
0.0337466
0.000565605
0.0318457
0.000591442
0.0300581
0.000621282
0.02837
0.00065521
0.0267707
0.000686293
0.0252707
0.000714537
0.0238528
0.000750565
0.0225098
0.000783155
0.0212484
0.000817251
0.0200556
0.00085155
0.0189311
0.000886469
0.0178701
0.000921645
0.0168692
0.000956775
0.0159255
0.000992447
0.015036
0.00102786
0.0141973
0.00106344
0.0134068
0.00109903
0.0126628
0.00113475
0.011962
0.0011706
0.011302
0.00120635
0.0106815
0.00124273
0.0100977
0.00127946
0.00954907
0.001317
0.00903359
0.00135509
0.00854992
0.0013947
0.00809546
0.00143599
0.00766984
0.00147941
0.00727031
0.00152612
0.00689594
0.00157624
0.0065461
0.0016303
0.0062181
0.00168883
0.00590961
0.00175258
0.00561597
0.0018235
0.00533943
0.0019093
0.00508232
0.00201411
0.00485194
0.00213299
0.00464201
0.00225342
0.00442863
0.00234755
0.00418846
0.00389819
3.46642e-05
0.490305
3.45782e-05
0.462762
3.44469e-05
0.436581
3.42823e-05
0.411883
3.40945e-05
0.388596
3.38898e-05
0.366587
6.82311e-05
0.34582
6.79992e-05
0.326262
3.31922e-05
0.307809
6.75033e-05
0.290358
6.72408e-05
0.273943
6.69735e-05
0.258427
6.66981e-05
0.243809
6.64192e-05
0.229987
0.000100701
0.216959
9.00464e-05
0.204713
9.6675e-05
0.193109
0.000103306
0.182176
0.000109942
0.171863
0.00011659
0.162137
0.000123251
0.152957
0.00012993
0.1443
0.000136632
0.136134
0.000146821
0.128428
0.000157048
0.121157
0.000163864
0.114302
0.000177647
0.107831
0.00018458
0.101734
0.000201961
0.0959727
0.000212511
0.0905471
0.000223162
0.0854261
0.00023738
0.0805926
0.000251722
0.0760361
0.000269666
0.0717359
0.000284299
0.0676851
0.000302568
0.0638559
0.000317556
0.0602518
0.000336211
0.0568486
0.000358557
0.0536358
0.000377677
0.0506133
0.000400529
0.0477533
0.000423671
0.0450628
0.000447122
0.0425208
0.000470913
0.0401272
0.000498562
0.0378611
0.000523117
0.0357294
0.000551592
0.0337181
0.000577057
0.0318202
0.000606526
0.0300286
0.000636533
0.02834
0.000663675
0.0267435
0.000694873
0.0252395
0.000730325
0.0238173
0.00075949
0.0224806
0.000791854
0.0212161
0.000823954
0.0200235
0.000856646
0.0188984
0.000889528
0.0178372
0.000922365
0.0168364
0.00095514
0.0158927
0.000987996
0.0150031
0.00102091
0.0141644
0.00105336
0.0133744
0.00108579
0.0126304
0.0011182
0.0119296
0.00115063
0.0112696
0.00118279
0.0106493
0.00121533
0.0100652
0.00124775
0.00951664
0.00128084
0.0090005
0.00131527
0.00851549
0.00135038
0.00806035
0.00138712
0.0076331
0.00142569
0.00723174
0.00146661
0.00685502
0.0015105
0.00650221
0.00155873
0.00616987
0.00161027
0.00585806
0.00166467
0.00556158
0.00172563
0.00527847
0.00179413
0.00501382
0.00187742
0.00476866
0.00197438
0.00454504
0.00207457
0.00432844
0.00216179
0.00410124
0.00384448
6.92237e-05
0.490236
3.45764e-05
0.462796
3.44387e-05
0.436581
3.42666e-05
0.411883
6.8632e-05
0.388562
6.84192e-05
0.366587
6.81902e-05
0.34582
6.79493e-05
0.326262
6.76973e-05
0.307809
6.74347e-05
0.290358
6.71638e-05
0.273943
6.68839e-05
0.258427
0.000101165
0.243775
0.000100875
0.229987
6.6015e-05
0.216994
9.68299e-05
0.204682
0.000103448
0.193103
0.000110068
0.18217
0.000113237
0.17186
0.000123332
0.162127
0.000129979
0.152951
0.000136648
0.144293
0.000146799
0.136124
0.00015698
0.128417
0.0001672
0.121147
0.000177466
0.114292
0.000184333
0.107824
0.000201642
0.101717
0.000208651
0.0959657
0.000222667
0.0905331
0.000240246
0.0854086
0.000251019
0.0805818
0.000268846
0.0760183
0.000283354
0.0717214
0.000301488
0.0676669
0.000316332
0.063841
0.000338302
0.0602299
0.000357019
0.0568299
0.000375968
0.0536168
0.000398638
0.0505906
0.000418111
0.0477339
0.000441356
0.0450396
0.000464928
0.0424972
0.000492325
0.0400998
0.00051662
0.0378368
0.000541339
0.0357047
0.000569979
0.0336895
0.000599091
0.0317911
0.000628726
0.029999
0.000658927
0.0283097
0.000686218
0.0267162
0.000717679
0.0252081
0.000746273
0.0237887
0.000779099
0.0224478
0.000808507
0.0211867
0.000839746
0.0199923
0.000870811
0.0188674
0.00090169
0.0178063
0.000932496
0.0168056
0.000962944
0.0158623
0.000993361
0.0149727
0.0010232
0.0141346
0.00105255
0.013345
0.00108196
0.012601
0.00111134
0.0119003
0.00113975
0.0112411
0.00116879
0.0106203
0.00119746
0.0100365
0.00122681
0.00948729
0.00125602
0.00897129
0.00128579
0.00848571
0.00131692
0.00802922
0.0013495
0.00760052
0.00138319
0.00719805
0.00141904
0.00681916
0.00145797
0.00646328
0.00149839
0.00612945
0.00154317
0.00581327
0.00159088
0.00551387
0.00164036
0.005229
0.00169738
0.0049568
0.00176202
0.00470401
0.0018367
0.00447036
0.00191736
0.00424778
0.00199251
0.00402609
0.00379094
3.46708e-05
0.490201
6.91326e-05
0.462762
6.89887e-05
0.436581
6.88096e-05
0.411883
3.40449e-05
0.388596
6.83836e-05
0.366553
3.35834e-05
0.345855
6.7895e-05
0.326228
6.7632e-05
0.307809
6.73589e-05
0.290358
0.00010164
0.273909
0.000101351
0.258428
6.64879e-05
0.24381
6.61868e-05
0.229987
0.000100448
0.21696
0.000103596
0.204679
0.000110202
0.193096
0.00011681
0.182163
0.000126884
0.171849
0.000130047
0.162124
0.000140146
0.15294
0.000150259
0.144283
0.0001604
0.136113
0.000167115
0.128411
0.000177331
0.121137
0.000187592
0.114282
0.000201373
0.107811
0.000211761
0.101706
0.000225692
0.0959518
0.000239716
0.0905191
0.00025385
0.0853944
0.000271562
0.0805641
0.000285949
0.0760039
0.000300493
0.0717068
0.000318661
0.0676488
0.000340484
0.0638192
0.000355581
0.0602148
0.000377831
0.0568076
0.000396859
0.0535978
0.000419619
0.0505679
0.000446139
0.0477073
0.0004695
0.0450162
0.000493194
0.0424735
0.000520734
0.0400723
0.000545188
0.0378124
0.000573549
0.0356764
0.000598877
0.0336642
0.0006282
0.0317618
0.000654535
0.0299727
0.00068495
0.0282793
0.000715927
0.0266852
0.000744089
0.0251799
0.000772909
0.0237599
0.000802419
0.0224183
0.000833401
0.0211557
0.00086275
0.019963
0.000892207
0.0188379
0.000921171
0.0177773
0.000949973
0.0167768
0.000978035
0.0158342
0.00100603
0.0149447
0.00103306
0.0141076
0.00106025
0.0133178
0.00108679
0.0125745
0.0011126
0.0118744
0.00113811
0.0112156
0.00116373
0.0105947
0.00118888
0.0100114
0.00121445
0.00946173
0.00124023
0.00894551
0.00126628
0.00845966
0.00129312
0.00800239
0.00132086
0.00757278
0.00135026
0.00716864
0.00138138
0.00678805
0.00141416
0.00643049
0.00144961
0.00609401
0.00148731
0.00577558
0.00152708
0.00547409
0.00156975
0.00518633
0.00161428
0.00491227
0.00166381
0.00465448
0.00172165
0.00441251
0.00178353
0.0041859
0.00184209
0.00396753
0.00374441
3.46745e-05
0.490167
3.45719e-05
0.462762
3.44189e-05
0.436581
3.42299e-05
0.411883
6.85766e-05
0.388562
3.37828e-05
0.366588
6.80953e-05
0.345821
6.7833e-05
0.326228
6.75585e-05
0.30781
6.72737e-05
0.290359
6.698e-05
0.273909
6.66768e-05
0.258428
0.000100933
0.243776
0.000100618
0.229988
0.000100298
0.21696
0.000110348
0.204669
0.000120398
0.193086
0.000126991
0.182157
0.000133594
0.171843
0.000143664
0.162113
0.000150286
0.152934
0.000160393
0.144273
0.00017052
0.136103
0.000184141
0.128397
0.000190888
0.12113
0.000204605
0.114268
0.00021838
0.107797
0.000228772
0.101696
0.00024617
0.0959344
0.000260204
0.090505
0.000274348
0.0853803
0.000288623
0.0805498
0.000306501
0.075986
0.000324536
0.0716888
0.000346215
0.0676271
0.000361163
0.0638043
0.000386719
0.0601892
0.00040558
0.0567888
0.000428163
0.0535752
0.000454495
0.0505415
0.000474189
0.0476876
0.00050115
0.0449892
0.000524995
0.0424497
0.000549206
0.0400481
0.00057731
0.0377843
0.000605847
0.0356478
0.000634859
0.0336352
0.000660898
0.0317358
0.000690946
0.0299426
0.000718062
0.0282522
0.000749305
0.026654
0.000777654
0.0251516
0.000806684
0.0237309
0.000836438
0.0223885
0.000864465
0.0211277
0.000892997
0.0199344
0.000920867
0.0188101
0.00094822
0.01775
0.000974681
0.0167503
0.00100116
0.0158078
0.00102614
0.0149197
0.00105108
0.0140826
0.00107521
0.0132937
0.00109861
0.0125511
0.00112138
0.0118517
0.00114423
0.0111928
0.00116605
0.0105728
0.00118783
0.00998958
0.00120971
0.00943985
0.00123187
0.00892335
0.00125413
0.0084374
0.00127711
0.00797941
0.00130079
0.00754911
0.00132557
0.00714386
0.00135156
0.00676206
0.00137932
0.00640273
0.00140912
0.0060642
0.00144039
0.00574432
0.00147341
0.00544107
0.00150672
0.00515302
0.00154218
0.00487681
0.00158056
0.00461611
0.00162267
0.00437041
0.00166786
0.0041407
0.00171342
0.00392198
0.00370788
3.46782e-05
0.490132
3.4569e-05
0.462762
6.89667e-05
0.436547
6.87687e-05
0.411884
6.85445e-05
0.388562
6.83008e-05
0.366588
6.80399e-05
0.345821
6.77662e-05
0.326229
0.000102042
0.307775
0.000101745
0.290359
0.000101437
0.27391
0.000101123
0.258428
0.0001008
0.243776
0.000135036
0.229953
0.000134703
0.21696
0.000123998
0.204679
0.000130574
0.193079
0.000137158
0.18215
0.000147199
0.171833
0.000157253
0.162103
0.000167324
0.152924
0.000177416
0.144263
0.000187535
0.136093
0.000197689
0.128387
0.000211344
0.121117
0.000225056
0.114254
0.00023537
0.107787
0.00025268
0.101679
0.000263161
0.0959239
0.000280664
0.0904875
0.000298285
0.0853627
0.000316044
0.0805321
0.000333953
0.0759681
0.000355492
0.0716673
0.000373759
0.0676088
0.000395693
0.0637823
0.000414391
0.0601705
0.000440267
0.0567629
0.000462947
0.0535525
0.000485918
0.0505185
0.000512679
0.0476609
0.000536307
0.0449656
0.000563775
0.0424222
0.000591642
0.0400202
0.000619929
0.037756
0.000645193
0.0356226
0.000674411
0.0336059
0.000704131
0.031706
0.000730936
0.0299158
0.000761792
0.0282214
0.000789752
0.026626
0.000818361
0.0251229
0.000847657
0.0237016
0.00087414
0.022362
0.000902728
0.0210991
0.000929651
0.0199075
0.000955649
0.0187841
0.000981399
0.0177242
0.00100603
0.0167257
0.00102998
0.0157838
0.001053
0.0148967
0.00107524
0.0140604
0.00109641
0.0132725
0.0011168
0.0125307
0.00113696
0.0118315
0.00115591
0.0111738
0.00117474
0.010554
0.00119345
0.00997088
0.00121159
0.0094217
0.00122971
0.00890523
0.00124846
0.00841865
0.00126737
0.0079605
0.00128708
0.0075294
0.00130751
0.00712343
0.00132868
0.00674088
0.00135146
0.00637996
0.00137555
0.0060401
0.00140083
0.00571904
0.0014265
0.00541539
0.00145387
0.00512566
0.00148028
0.0048504
0.00150873
0.00458766
0.00153864
0.0043405
0.00157026
0.00410908
0.00160218
0.00389006
0.0036807
6.92385e-05
0.490063
6.9124e-05
0.462762
3.43943e-05
0.436582
6.87448e-05
0.411849
6.85089e-05
0.388563
6.82534e-05
0.366588
0.000102542
0.345787
6.76916e-05
0.326263
6.73901e-05
0.307776
0.000101643
0.290325
0.000101321
0.27391
0.00010099
0.258428
0.000135216
0.243742
0.000100308
0.229988
0.000134526
0.216926
0.000134174
0.20468
0.000140737
0.193073
0.000154213
0.182137
0.000160785
0.171826
0.000170826
0.162093
0.00018088
0.152914
0.000194413
0.144249
0.00020452
0.136083
0.000218121
0.128373
0.000231771
0.121103
0.000245474
0.114241
0.000259248
0.107773
0.000273101
0.101665
0.000293962
0.0959031
0.000308021
0.0904735
0.000325664
0.085345
0.000346905
0.0805108
0.000364848
0.0759502
0.000386434
0.0716457
0.000404753
0.0675905
0.000430217
0.0637569
0.000452457
0.0601483
0.000474959
0.0567404
0.000501211
0.0535263
0.000524305
0.0504955
0.000551195
0.047634
0.000578446
0.0449384
0.000609551
0.0423911
0.000637597
0.0399921
0.00066261
0.037731
0.000695039
0.0355901
0.000721011
0.03358
0.00075098
0.0316761
0.000781491
0.0298853
0.000809131
0.0281937
0.000837341
0.0265978
0.000866198
0.0250941
0.000892245
0.0236755
0.000918963
0.0223353
0.000946769
0.0210713
0.00097215
0.0198821
0.000996933
0.0187593
0.00102039
0.0177008
0.00104297
0.0167031
0.00106436
0.0157624
0.00108523
0.0148758
0.00110477
0.0140408
0.00112308
0.0132542
0.00114089
0.0125129
0.00115748
0.0118149
0.00117385
0.0111575
0.00118916
0.0105387
0.00120421
0.00995583
0.00121875
0.00940716
0.0012336
0.00889038
0.00124816
0.00840409
0.00126314
0.00794552
0.00127882
0.00751372
0.00129477
0.00710748
0.00131149
0.00672417
0.00132891
0.00636254
0.00134743
0.00602158
0.00136688
0.00569959
0.0013873
0.00539498
0.00140727
0.00510568
0.00142682
0.00483085
0.00144632
0.00456815
0.00146585
0.00432097
0.00148691
0.00408803
0.00150717
0.0038698
0.00366372
3.4686e-05
0.490028
6.91201e-05
0.462728
6.89395e-05
0.436582
6.87191e-05
0.411849
6.84704e-05
0.388563
0.000102763
0.366554
6.79131e-05
0.345822
0.000102174
0.326229
0.000101859
0.307776
0.000101531
0.290325
0.000101194
0.27391
0.000135412
0.258394
0.000100493
0.243777
0.000134697
0.229954
0.000134332
0.216926
0.000151247
0.204663
0.000161247
0.193063
0.000167796
0.18213
0.000181265
0.171813
0.000191288
0.162083
0.000204787
0.1529
0.000211391
0.144243
0.000228401
0.136066
0.000241991
0.12836
0.000255629
0.121089
0.000269326
0.114227
0.000286556
0.107756
0.00030387
0.101648
0.000321287
0.0958856
0.000342275
0.0904525
0.000359935
0.0853274
0.00037775
0.080493
0.000399192
0.0759287
0.000420824
0.071624
0.000446125
0.0675652
0.000468199
0.0637348
0.000493988
0.0601225
0.000520055
0.0567143
0.000546422
0.0534999
0.000573113
0.0504688
0.000600154
0.047607
0.000631039
0.0449075
0.000655383
0.0423668
0.000687105
0.0399604
0.000715795
0.0377023
0.000744967
0.035561
0.000774655
0.0335503
0.000801387
0.0316493
0.00083217
0.0298545
0.000860045
0.0281658
0.000888542
0.0265693
0.000917693
0.0250649
0.000947453
0.0236458
0.000970923
0.0223118
0.000996162
0.021046
0.00102
0.0198583
0.00104287
0.0187364
0.0010648
0.0176789
0.0010854
0.0166825
0.00110443
0.0157434
0.00112228
0.014858
0.00113914
0.014024
0.00115478
0.0132386
0.00116917
0.0124985
0.00118306
0.011801
0.00119539
0.0111451
0.00120761
0.0105265
0.00121912
0.00994432
0.0012307
0.00939558
0.00124152
0.00887956
0.00125275
0.00839285
0.00126358
0.0079347
0.00127446
0.00750284
0.00128629
0.00709565
0.00129877
0.00671168
0.0013116
0.00634971
0.00132465
0.00600853
0.00133887
0.00568537
0.00135304
0.00538081
0.00136657
0.00509214
0.00137992
0.0048175
0.0013915
0.00455657
0.00140364
0.00430883
0.00141488
0.00407678
0.0014261
0.00385859
0.00365471
6.92466e-05
0.489959
6.91156e-05
0.462728
6.89237e-05
0.436582
6.86905e-05
0.41185
0.000102989
0.388529
6.81445e-05
0.366589
0.000102403
0.345787
0.000102086
0.326229
0.000101755
0.307776
0.000101411
0.290325
0.00013562
0.273876
0.000135257
0.258395
0.000134885
0.243777
0.000134507
0.229954
0.000134121
0.216927
0.000164845
0.204632
0.00017483
0.193053
0.000188272
0.182117
0.000198267
0.171803
0.000211729
0.16207
0.000221752
0.15289
0.000238716
0.144226
0.000252251
0.136053
0.000265833
0.128346
0.00028292
0.121072
0.000300073
0.11421
0.000317298
0.107738
0.000338074
0.101627
0.0003555
0.0958682
0.000373043
0.0904349
0.000394192
0.0853062
0.000418956
0.0804683
0.000443903
0.0759038
0.000465585
0.0716024
0.000490955
0.0675398
0.000516568
0.0637092
0.00054245
0.0600966
0.000568623
0.0566882
0.00059858
0.05347
0.000625412
0.0504419
0.000656078
0.0475763
0.000683669
0.0448799
0.000715148
0.0423353
0.000743594
0.039932
0.000775989
0.0376699
0.000801934
0.035535
0.000835349
0.0335169
0.000865843
0.0316188
0.000893417
0.029827
0.000921569
0.0281377
0.000950315
0.0265406
0.000976216
0.025039
0.00100278
0.0236192
0.00103004
0.0222846
0.00105063
0.0210254
0.00107329
0.0198356
0.00109425
0.0187154
0.00111347
0.0176596
0.00113173
0.0166642
0.00114881
0.0157263
0.00116378
0.014843
0.00117766
0.0140101
0.00119028
0.0132259
0.00120193
0.0124868
0.00121206
0.0117909
0.00122192
0.0111353
0.00123034
0.0105181
0.00123806
0.0099366
0.00124533
0.00938831
0.00125277
0.00887213
0.00125966
0.00838596
0.00126693
0.00792743
0.00127443
0.00749535
0.00128173
0.00708835
0.00128903
0.00670438
0.00129692
0.00634182
0.00130565
0.0059998
0.00131361
0.00567741
0.00132228
0.00537214
0.0013307
0.00508373
0.00133744
0.00481076
0.00134434
0.00454967
0.00134866
0.00430451
0.00135273
0.00407272
0.00135591
0.00385541
0.00365339
6.92506e-05
0.48989
6.91105e-05
0.462728
0.000103466
0.436548
0.00010322
0.41185
6.83819e-05
0.388563
0.000102644
0.366555
0.000102325
0.345788
0.000101991
0.32623
0.000136205
0.307742
0.000135844
0.290326
0.000135472
0.273877
0.000135091
0.258395
0.000169264
0.243743
0.000168865
0.229955
0.00020303
0.216893
0.00018534
0.20465
0.000198758
0.193039
0.000208727
0.182107
0.00022216
0.171789
0.000235605
0.162056
0.000249067
0.152877
0.000266012
0.144209
0.00027954
0.136039
0.00029656
0.128329
0.000313642
0.121055
0.000330785
0.114193
0.000354933
0.107714
0.000372254
0.10161
0.000393145
0.0958473
0.000414168
0.0904139
0.000438799
0.0852816
0.000463598
0.0804435
0.000485128
0.0758822
0.000513796
0.0715737
0.000539233
0.0675144
0.000564932
0.0636835
0.000594377
0.0600672
0.000624131
0.0566584
0.000650752
0.0534433
0.000684665
0.050408
0.000712029
0.0475489
0.000743273
0.0448486
0.000774951
0.0423036
0.000803621
0.0399033
0.000836259
0.0376372
0.000869394
0.0355019
0.000896113
0.0334901
0.000926856
0.0315881
0.000958185
0.0297956
0.000986614
0.0281093
0.00101221
0.026515
0.00103839
0.0250129
0.0010617
0.0235959
0.00108568
0.0222606
0.00110999
0.0210011
0.00113046
0.0198151
0.00114944
0.0186965
0.00116684
0.0176422
0.00118241
0.0166487
0.00119623
0.0157125
0.00120883
0.0148304
0.00121983
0.0139991
0.00122927
0.0132165
0.00123741
0.0124787
0.00124441
0.0117839
0.00125011
0.0111296
0.00125549
0.0105127
0.00126007
0.00993202
0.00126352
0.00938485
0.00126711
0.00886854
0.00127017
0.00838289
0.00127305
0.00792455
0.00127572
0.00749268
0.0012791
0.00708497
0.00128218
0.0067013
0.00128551
0.00633848
0.00128863
0.00599668
0.00129236
0.00567368
0.00129568
0.00536882
0.0012985
0.0050809
0.00130068
0.00480859
0.00130036
0.00454998
0.00130004
0.00430484
0.00129765
0.0040751
0.00129457
0.00385849
0.00365734
0.000103811
0.489786
0.000103663
0.462728
0.000103447
0.436548
0.000103186
0.41185
0.000102893
0.388564
0.00013714
0.36652
0.000136804
0.345788
0.000136451
0.32623
0.000136085
0.307742
0.000135704
0.290326
0.000135311
0.273877
0.000169474
0.258361
0.000169063
0.243743
0.00020321
0.229921
0.000168218
0.216928
0.000209273
0.204609
0.000219216
0.193029
0.000232619
0.182093
0.000246031
0.171776
0.000259454
0.162043
0.000279816
0.152856
0.00029329
0.144195
0.000310253
0.136022
0.000330723
0.128309
0.000351249
0.121035
0.000371853
0.114172
0.000389075
0.107697
0.000413322
0.101585
0.000434224
0.0958264
0.000462189
0.0903859
0.000486847
0.0852569
0.000511687
0.0804186
0.000540188
0.0758537
0.000565454
0.0715484
0.000594433
0.0674854
0.000627145
0.0636508
0.000656698
0.0600376
0.000686576
0.0566285
0.000716804
0.0534131
0.000747412
0.0503774
0.000781889
0.0475144
0.000813329
0.0448172
0.000845227
0.0422717
0.000877603
0.0398709
0.000906993
0.0376079
0.000936921
0.0354719
0.000970867
0.0334562
0.000998433
0.0315605
0.00102655
0.0297675