/*--------------------------------*- C++ -*----------------------------------*\
  =========                 |
  \\      /  F ield         | OpenFOAM: The Open Source CFD Toolbox
   \\    /   O peration     | Website:  https://openfoam.org
    \\  /    A nd           | Version:  9
     \\/     M anipulation  |
\*---------------------------------------------------------------------------*/
FoamFile
{
    format      ascii;
    class       volScalarField;
    location    "3000";
    object      ReThetat;
}
// * * * * * * * * * * * * * * * * * * * * * * * * * * * * * * * * * * * * * //

dimensions      [0 0 0 0 0 0 0];

internalField   nonuniform List<scalar> 
13617
(
1085.45
1067.36
1065.12
1062.7
1060.09
1057.4
1054.66
1051.87
1049.07
1046.22
1043.38
1040.5
1037.62
1034.73
1031.83
1028.91
1025.97
1023.02
1020.03
1017
1013.91
1010.75
1007.5
1004.13
1000.61
996.902
992.982
988.797
984.314
979.102
971.66
962.457
952.032
940.558
928.085
914.713
900.502
885.591
870.061
854.014
837.584
820.836
803.862
786.732
769.531
752.31
735.154
718.136
701.363
684.97
669.122
654.057
640.059
627.494
616.774
608.256
602.372
598.987
596.777
595.228
594.133
593.39
592.957
592.831
593.04
593.641
594.718
596.36
598.539
601.118
605.349
617.259
646.5
694.037
744.481
782.422
807.82
827.006
841.906
845.965
823.409
774.863
712.191
646.089
593.208
563.002
1091.93
1067.18
1064.97
1062.55
1059.95
1057.26
1054.54
1051.74
1048.94
1046.1
1043.25
1040.38
1037.5
1034.61
1031.71
1028.8
1025.88
1022.93
1019.96
1016.94
1013.88
1010.74
1007.51
1004.17
1000.67
996.996
993.099
988.936
984.465
979.332
972.017
962.757
952.217
940.578
927.9
914.265
899.779
884.54
868.667
852.272
835.485
818.388
801.092
783.678
766.222
748.792
731.485
714.374
697.564
681.184
665.409
650.445
636.585
624.188
613.65
605.313
599.669
596.435
594.36
592.921
591.911
591.235
590.851
590.759
590.986
591.587
592.636
594.216
596.357
598.991
602.635
610.442
628.878
661.67
701.964
737.595
763.835
783.884
801.883
817.029
817.521
794.163
752
697.407
641.181
593.7
1097.27
1066.96
1064.74
1062.32
1059.73
1057.04
1054.32
1051.53
1048.73
1045.89
1043.04
1040.17
1037.3
1034.41
1031.52
1028.62
1025.7
1022.76
1019.81
1016.8
1013.75
1010.63
1007.42
1004.09
1000.61
996.941
993.05
988.89
984.41
979.2
971.853
962.481
951.794
939.965
927.081
913.2
898.445
882.918
866.74
850.056
832.95
815.558
797.984
780.306
762.625
745.005
727.539
710.317
693.448
677.058
661.321
646.445
632.719
620.504
610.174
602.057
596.69
593.592
591.635
590.289
589.349
588.723
588.372
588.292
588.51
589.078
590.062
591.536
593.544
596.056
599.336
605.269
618.28
642.159
674.143
705.736
731.186
751.043
768.658
786.288
798.111
793.396
771.111
734.272
688.609
639.047
1101.12
1066.62
1064.39
1061.97
1059.39
1056.7
1053.98
1051.19
1048.4
1045.56
1042.71
1039.85
1036.98
1034.1
1031.22
1028.33
1025.43
1022.5
1019.56
1016.57
1013.54
1010.44
1007.25
1003.93
1000.47
996.824
992.947
988.796
984.318
979.111
971.688
962.217
951.415
939.437
926.37
912.297
897.306
881.54
865.112
848.151
830.788
813.134
795.31
777.39
759.489
741.683
724.061
706.722
689.771
673.342
657.608
642.784
629.146
617.048
606.874
598.893
593.77
590.805
588.953
587.69
586.812
586.229
585.902
585.827
586.03
586.556
587.468
588.831
590.693
593.043
596.03
600.849
610.568
628.435
653.677
680.708
704.26
723.324
739.92
756.738
772.547
779.006
772.087
751.98
721.386
680.814
1103.41
1066.11
1063.88
1061.47
1058.89
1056.21
1053.49
1050.71
1047.92
1045.09
1042.25
1039.39
1036.54
1033.67
1030.8
1027.92
1025.03
1022.13
1019.2
1016.24
1013.23
1010.15
1006.98
1003.69
1000.26
996.631
992.777
988.642
984.176
978.97
971.477
961.934
951.03
938.93
925.71
911.467
896.283
880.297
863.652
846.447
828.849
810.96
792.897
774.77
756.664
738.681
720.916
703.454
686.424
669.953
654.208
639.411
625.839
613.841
603.788
595.908
590.99
588.15
586.392
585.205
584.384
583.839
583.532
583.46
583.643
584.125
584.964
586.22
587.938
590.122
592.858
596.92
604.446
618.044
637.909
660.512
681.553
699.353
714.784
729.964
745.885
757.377
760.46
753.152
736.043
708.241
1104.49
1065.48
1063.24
1060.84
1058.26
1055.59
1052.88
1050.1
1047.32
1044.49
1041.66
1038.81
1035.97
1033.11
1030.26
1027.4
1024.53
1021.64
1018.74
1015.8
1012.82
1009.77
1006.63
1003.37
999.962
996.365
992.538
988.425
983.975
978.726
971.168
961.56
950.555
938.344
924.992
910.572
895.22
879.039
862.175
844.757
826.929
808.82
790.539
772.206
753.92
735.771
717.868
700.307
683.205
666.699
650.959
636.196
622.692
610.791
600.862
593.08
588.359
585.638
583.967
582.849
582.079
581.568
581.279
581.206
581.369
581.807
582.574
583.726
585.306
587.326
589.837
593.346
599.341
609.852
625.485
644.104
662.418
678.616
692.782
706.349
720.853
733.34
741.664
742.759
735.428
719.243
1104.78
1064.73
1062.48
1060.08
1057.51
1054.84
1052.14
1049.37
1046.59
1043.77
1040.96
1038.12
1035.29
1032.45
1029.61
1026.77
1023.92
1021.07
1018.19
1015.28
1012.33
1009.31
1006.2
1002.98
999.604
996.04
992.243
988.156
983.727
978.411
970.782
961.103
950.017
937.7
924.215
909.649
894.117
877.753
860.681
843.058
825.017
806.702
788.223
769.695
751.239
732.945
714.917
697.262
680.097
663.57
647.838
633.122
619.693
607.895
598.09
590.408
585.879
583.27
581.676
580.623
579.899
579.418
579.144
579.069
579.21
579.603
580.299
581.35
582.798
584.657
586.962
590.044
594.937
603.184
615.52
630.72
646.367
660.787
673.578
685.693
698.498
709.899
719.974
725.719
724.326
716.528
1104.43
1063.87
1061.59
1059.19
1056.63
1053.97
1051.27
1048.51
1045.74
1042.94
1040.13
1037.31
1034.5
1031.68
1028.87
1026.05
1023.23
1020.4
1017.55
1014.68
1011.76
1008.78
1005.71
1002.53
999.192
995.668
991.906
987.854
983.449
978.044
970.346
960.606
949.449
937.029
923.428
908.72
893.03
876.486
859.226
841.409
823.17
804.65
785.983
767.284
748.666
730.234
712.098
694.366
677.152
660.61
644.892
630.225
616.872
605.175
595.489
587.905
583.544
581.042
579.521
578.524
577.844
577.39
577.127
577.048
577.165
577.513
578.14
579.092
580.412
582.116
584.226
586.962
591.037
597.603
607.389
619.739
632.929
645.538
656.882
667.662
678.933
688.524
698.29
705.936
707.368
704.425
1103.58
1062.87
1060.56
1058.17
1055.62
1052.96
1050.27
1047.52
1044.77
1041.98
1039.19
1036.39
1033.6
1030.81
1028.02
1025.23
1022.44
1019.65
1016.84
1014
1011.12
1008.19
1005.16
1002.02
998.736
995.256
991.538
987.524
983.151
977.64
969.872
960.079
948.857
936.35
922.638
907.798
891.965
875.251
857.819
839.818
821.399
802.698
783.856
764.993
746.233
727.674
709.441
691.636
674.384
657.829
642.139
627.518
614.242
602.642
593.067
585.575
581.356
578.955
577.501
576.556
575.914
575.484
575.23
575.144
575.237
575.54
576.097
576.953
578.148
579.7
581.625
584.067
587.516
592.824
600.638
610.651
621.673
632.548
642.411
651.938
661.892
669.657
678.236
686.051
688.215
687.221
1102.2
1061.72
1059.39
1057.01
1054.46
1051.82
1049.14
1046.41
1043.67
1040.9
1038.14
1035.36
1032.6
1029.83
1027.08
1024.32
1021.57
1018.82
1016.05
1013.26
1010.43
1007.54
1004.57
1001.48
998.246
994.816
991.148
987.177
982.839
977.207
969.37
959.528
948.242
935.662
921.844
906.893
890.914
874.057
856.464
838.29
819.701
800.83
781.829
762.816
743.922
725.257
706.939
689.07
671.793
655.235
639.573
625.008
611.808
600.301
590.828
583.422
579.314
577.009
575.618
574.72
574.112
573.703
573.456
573.361
573.429
573.687
574.174
574.936
576.008
577.411
579.159
581.343
584.301
588.651
594.937
603.062
612.215
621.494
629.917
638.248
647.051
653.286
660.384
667.394
669.2
668.272
1100.36
1060.42
1058.07
1055.7
1053.17
1050.54
1047.88
1045.17
1042.45
1039.71
1036.97
1034.22
1031.49
1028.76
1026.04
1023.33
1020.63
1017.92
1015.2
1012.46
1009.69
1006.86
1003.94
1000.91
997.735
994.364
990.748
986.829
982.505
976.751
968.843
958.968
947.627
934.97
921.065
906.002
889.896
872.9
855.157
836.826
818.073
799.053
779.901
760.759
741.749
722.986
704.593
686.681
669.381
652.835
637.206
622.7
609.577
598.158
588.778
581.452
577.422
575.206
573.874
573.018
572.441
572.05
571.807
571.702
571.744
571.956
572.375
573.043
573.995
575.254
576.83
578.782
581.34
584.948
590.05
596.658
604.234
612.082
619.175
626.374
634.116
639.198
644.764
650.513
651.54
649.673
1098.05
1059
1056.61
1054.25
1051.74
1049.13
1046.49
1043.8
1041.11
1038.4
1035.69
1032.98
1030.29
1027.6
1024.93
1022.27
1019.62
1016.96
1014.3
1011.62
1008.91
1006.14
1003.29
1000.33
997.218
993.911
990.355
986.493
982.163
976.299
968.32
958.405
947.02
934.295
920.308
905.136
888.923
871.785
853.904
835.433
816.534
797.373
778.095
758.835
739.718
720.875
702.422
684.478
667.17
650.64
635.053
620.61
607.56
596.223
586.925
579.671
575.685
573.548
572.273
571.455
570.905
570.528
570.288
570.172
570.186
570.352
570.704
571.281
572.116
573.233
574.643
576.382
578.604
581.629
585.806
591.2
597.465
604.054
609.973
616.109
622.835
627.076
631.221
635.498
635.628
632.55
1095.34
1057.41
1055
1052.66
1050.17
1047.58
1044.97
1042.31
1039.66
1036.98
1034.32
1031.65
1029.01
1026.37
1023.75
1021.15
1018.55
1015.96
1013.37
1010.76
1008.12
1005.42
1002.64
999.751
996.712
993.474
989.988
986.187
981.839
975.866
967.816
957.864
946.433
933.655
919.584
904.322
887.995
870.741
852.731
834.13
815.104
795.815
776.417
757.048
737.847
718.938
700.438
682.472
665.167
648.663
633.123
618.745
605.774
594.513
585.283
578.089
574.106
572.037
570.817
570.034
569.507
569.143
568.903
568.774
568.76
568.881
569.167
569.654
570.374
571.355
572.604
574.142
576.076
578.634
582.082
586.506
591.689
597.184
602.092
607.26
613.004
616.587
619.503
622.289
621.405
617.21
1092.2
1055.67
1053.24
1050.92
1048.46
1045.9
1043.33
1040.7
1038.09
1035.46
1032.85
1030.24
1027.65
1025.07
1022.52
1019.98
1017.45
1014.93
1012.42
1009.88
1007.32
1004.7
1002
999.195
996.234
993.075
989.662
985.93
981.557
975.462
967.347
957.368
945.897
933.062
918.919
903.571
887.141
869.784
851.653
832.929
813.789
794.386
774.884
755.427
736.156
717.189
698.658
680.684
663.393
646.924
631.439
617.127
604.23
593.039
583.863
576.715
572.692
570.676
569.509
568.759
568.251
567.897
567.655
567.512
567.47
567.547
567.768
568.167
568.778
569.626
570.717
572.067
573.75
575.924
578.791
582.434
586.73
591.282
595.331
599.64
604.447
607.455
609.311
610.766
608.931
603.741
1088.66
1053.78
1051.34
1049.04
1046.61
1044.09
1041.56
1038.99
1036.43
1033.85
1031.3
1028.75
1026.23
1023.72
1021.24
1018.78
1016.33
1013.89
1011.46
1009.01
1006.54
1004.01
1001.4
998.681
995.807
992.732
989.4
985.742
981.324
975.116
966.942
956.929
945.423
932.533
918.327
902.898
886.375
868.915
850.68
831.849
812.599
793.096
773.51
753.978
734.645
715.647
697.096
679.125
661.86
645.439
630.011
615.769
602.943
591.814
582.679
575.562
571.449
569.469
568.351
567.631
567.141
566.794
566.549
566.391
566.321
566.354
566.511
566.827
567.334
568.051
568.988
570.162
571.621
573.473
575.869
578.883
582.45
586.198
589.517
593.074
597.01
599.486
600.405
600.744
598.122
592.101
1084.71
1051.76
1049.28
1047.03
1044.64
1042.17
1039.69
1037.17
1034.67
1032.16
1029.68
1027.21
1024.76
1022.34
1019.94
1017.56
1015.21
1012.86
1010.52
1008.17
1005.79
1003.36
1000.85
998.23
995.453
992.469
989.223
985.645
981.159
974.855
966.614
956.572
945.035
932.101
917.828
902.325
885.724
868.162
849.835
830.907
811.563
791.977
772.317
752.726
733.349
714.326
695.774
677.818
660.59
644.221
628.862
614.693
601.934
590.857
581.746
574.645
570.379
568.418
567.346
566.655
566.179
565.837
565.587
565.413
565.316
565.304
565.401
565.64
566.045
566.634
567.423
568.43
569.687
571.267
573.276
575.778
578.746
581.809
584.507
587.416
590.558
592.529
592.559
592.018
588.773
582.14
1080.42
1049.57
1047.09
1044.88
1042.55
1040.14
1037.72
1035.27
1032.85
1030.42
1028.01
1025.62
1023.27
1020.94
1018.64
1016.36
1014.11
1011.86
1009.63
1007.38
1005.11
1002.79
1000.39
997.869
995.193
992.309
989.155
985.661
981.098
974.694
966.388
956.321
944.754
931.776
917.446
901.867
885.191
867.548
849.134
830.119
810.698
791.042
771.317
751.684
732.285
713.25
694.709
676.785
659.606
643.299
628.008
613.914
601.222
590.189
581.087
573.979
569.475
567.523
566.496
565.832
565.369
565.029
564.773
564.583
564.457
564.403
564.446
564.61
564.913
565.377
566.027
566.879
567.954
569.297
570.983
573.06
575.532
578.014
580.18
582.537
584.975
586.475
585.689
584.386
580.687
573.689
1075.72
1047.25
1044.77
1042.61
1040.35
1038.01
1035.67
1033.3
1030.96
1028.62
1026.32
1024.03
1021.78
1019.55
1017.36
1015.19
1013.05
1010.92
1008.8
1006.67
1004.52
1002.31
1000.03
997.621
995.055
992.274
989.219
985.813
981.158
974.654
966.291
956.2
944.602
931.58
917.2
901.562
884.804
867.09
848.596
829.506
810.022
790.308
770.537
750.879
731.465
712.438
693.924
676.046
658.923
642.688
627.478
613.459
600.829
589.828
580.716
573.579
568.775
566.793
565.799
565.162
564.711
564.372
564.108
563.9
563.745
563.654
563.646
563.734
563.936
564.285
564.808
565.517
566.423
567.553
568.96
570.681
572.74
574.727
576.432
578.323
580.149
581.23
579.849
577.769
573.701
566.603
1070.71
1044.8
1042.33
1040.24
1038.06
1035.8
1033.56
1031.29
1029.05
1026.81
1024.62
1022.44
1020.3
1018.19
1016.12
1014.08
1012.06
1010.06
1008.07
1006.07
1004.04
1001.96
999.796
997.512
995.062
992.392
989.438
986.108
981.356
974.762
966.346
956.234
944.605
931.54
917.107
901.414
884.587
866.806
848.248
829.098
809.557
789.801
770.006
750.331
730.923
711.921
693.445
675.624
658.571
642.416
627.29
613.349
600.776
589.798
580.659
573.466
568.399
566.242
565.255
564.645
564.205
563.867
563.594
563.366
563.185
563.062
562.998
563.006
563.117
563.367
563.776
564.349
565.092
566.025
567.187
568.603
570.317
571.885
573.183
574.673
575.979
576.71
575.007
572.105
567.718
560.76
1065.34
1042.23
1039.79
1037.79
1035.7
1033.54
1031.4
1029.25
1027.12
1025.01
1022.94
1020.88
1018.88
1016.9
1014.97
1013.06
1011.18
1009.31
1007.46
1005.6
1003.7
1001.76
999.725
997.568
995.24
992.684
989.835
986.559
981.723
975.04
966.572
956.433
944.779
931.679
917.194
901.445
884.569
866.726
848.11
828.914
809.329
789.548
769.738
750.066
730.68
711.716
693.297
675.548
658.579
642.51
627.471
613.607
601.09
590.126
580.942
573.662
568.37
565.867
564.861
564.28
563.853
563.514
563.228
562.983
562.782
562.62
562.495
562.431
562.468
562.635
562.937
563.373
563.956
564.706
565.652
566.807
568.232
569.446
570.375
571.511
572.378
572.828
571.004
567.336
562.691
556.036
1059.72
1039.57
1037.17
1035.27
1033.29
1031.26
1029.24
1027.21
1025.22
1023.24
1021.31
1019.4
1017.54
1015.71
1013.92
1012.16
1010.42
1008.71
1007
1005.28
1003.54
1001.73
999.839
997.814
995.612
993.174
990.433
987.198
982.278
975.506
966.99
956.825
945.147
932.01
917.483
901.686
884.756
866.863
848.203
828.971
809.363
789.569
769.761
750.113
730.765
711.854
693.507
675.839
658.964
642.994
628.05
614.266
601.799
590.838
581.594
574.2
568.695
565.667
564.616
564.061
563.65
563.31
563.014
562.759
562.531
562.317
562.135
562.021
562.006
562.095
562.289
562.59
563.018
563.595
564.346
565.271
566.453
567.377
567.971
568.784
569.285
569.512
567.676
563.377
558.567
552.291
1053.84
1036.83
1034.49
1032.72
1030.87
1028.97
1027.1
1025.21
1023.37
1021.54
1019.76
1018.01
1016.31
1014.63
1013
1011.4
1009.83
1008.28
1006.73
1005.16
1003.57
1001.91
1000.16
998.273
996.2
993.882
991.252
988.043
983.03
976.182
967.618
957.433
945.727
932.554
917.992
902.15
885.175
867.245
848.553
829.3
809.682
789.895
770.108
750.499
731.204
712.366
694.105
676.536
659.767
643.9
629.056
615.354
602.936
591.972
582.652
575.115
569.392
565.835
564.52
563.976
563.591
563.255
562.958
562.685
562.414
562.154
561.94
561.799
561.737
561.741
561.822
561.993
562.269
562.675
563.242
563.966
564.945
565.631
565.923
566.454
566.664
566.716
564.917
560.172
555.299
549.381
1047.71
1034.02
1031.78
1030.15
1028.45
1026.71
1024.99
1023.27
1021.6
1019.94
1018.33
1016.75
1015.22
1013.72
1012.26
1010.83
1009.43
1008.04
1006.66
1005.26
1003.82
1002.32
1000.71
998.964
997.023
994.827
992.304
989.1
984.003
977.081
968.472
958.267
946.536
933.333
918.731
902.855
885.851
867.895
849.186
829.927
810.315
790.55
770.805
751.252
732.032
713.282
695.126
677.668
661.014
645.264
630.524
616.904
604.535
593.561
584.156
576.454
570.491
566.479
564.578
564.006
563.661
563.349
563.051
562.744
562.43
562.152
561.938
561.775
561.65
561.562
561.526
561.56
561.684
561.923
562.314
562.857
563.67
564.163
564.185
564.489
564.491
564.415
562.678
557.675
552.828
547.189
1041.37
1031.15
1029.03
1027.57
1026.04
1024.48
1022.95
1021.42
1019.93
1018.46
1017.03
1015.64
1014.3
1012.98
1011.71
1010.46
1009.24
1008.03
1006.82
1005.58
1004.31
1002.96
1001.51
999.905
998.097
996.021
993.605
990.388
985.206
978.21
969.566
959.336
947.585
934.356
919.727
903.824
886.798
868.83
850.119
830.869
811.287
791.566
771.883
752.404
733.278
714.636
696.599
679.269
662.744
647.121
632.492
618.961
606.639
595.654
586.153
578.268
572.044
567.61
565.051
564.136
563.83
563.569
563.263
562.926
562.611
562.354
562.134
561.925
561.714
561.513
561.344
561.237
561.216
561.31
561.549
561.94
562.619
562.953
562.734
562.873
562.75
562.597
560.944
555.843
551.086
545.635
1034.81
1028.24
1026.28
1025.01
1023.69
1022.33
1021.01
1019.68
1018.39
1017.13
1015.91
1014.72
1013.57
1012.46
1011.38
1010.32
1009.29
1008.26
1007.23
1006.17
1005.06
1003.88
1002.57
1001.11
999.433
997.476
995.164
991.912
986.645
979.587
970.906
960.656
948.887
935.638
920.989
905.073
888.039
870.074
851.377
832.159
812.626
792.97
773.369
753.99
734.982
716.467
698.565
681.38
665
649.512
635.004
621.566
609.294
598.295
588.7
580.622
574.115
569.267
566.118
564.527
564.056
563.837
563.558
563.25
562.986
562.75
562.49
562.201
561.878
561.54
561.23
560.993
560.857
560.841
560.958
561.228
561.8
562.023
561.594
561.607
561.424
561.25
559.711
554.69
550.038
544.679
1028.23
1025.34
1023.58
1022.54
1021.45
1020.32
1019.22
1018.11
1017.05
1016.01
1015.01
1014.03
1013.1
1012.19
1011.31
1010.46
1009.62
1008.77
1007.92
1007.04
1006.1
1005.07
1003.92
1002.59
1001.04
999.202
996.99
993.68
988.329
981.213
972.501
962.235
950.45
937.189
922.529
906.613
889.587
871.645
852.987
833.827
814.362
794.797
775.304
756.05
737.176
718.81
701.068
684.041
667.82
652.484
638.105
624.768
612.553
601.547
591.859
583.587
576.787
571.522
567.821
565.57
564.46
564.076
563.887
563.718
563.525
563.253
562.902
562.48
562.023
561.571
561.161
560.836
560.628
560.545
560.585
560.785
561.262
561.413
560.82
560.723
560.514
560.372
558.972
554.201
549.668
544.328
1021.83
1022.59
1021.08
1020.28
1019.43
1018.55
1017.69
1016.82
1016
1015.18
1014.41
1013.65
1012.94
1012.24
1011.57
1010.91
1010.26
1009.61
1008.94
1008.23
1007.45
1006.58
1005.57
1004.38
1002.95
1001.21
999.089
995.698
990.264
983.095
974.356
964.079
952.284
939.016
924.364
908.462
891.46
873.564
854.967
835.888
816.523
797.077
777.717
758.611
739.9
721.709
704.146
687.301
671.254
656.084
641.852
628.627
616.477
605.476
595.706
587.25
580.157
574.481
570.245
567.342
565.536
564.599
564.272
564.18
564.015
563.678
563.213
562.662
562.099
561.59
561.153
560.806
560.583
560.479
560.49
560.665
561.084
561.231
560.514
560.307
560.085
560.004
558.75
554.335
549.954
544.598
1015.96
1020.19
1018.96
1018.41
1017.82
1017.19
1016.57
1015.95
1015.36
1014.77
1014.22
1013.69
1013.18
1012.69
1012.22
1011.76
1011.29
1010.82
1010.32
1009.77
1009.15
1008.42
1007.54
1006.48
1005.15
1003.51
1001.47
997.974
992.454
985.237
976.473
966.186
954.393
941.129
926.498
910.628
893.68
875.852
857.344
838.373
819.139
799.837
780.642
761.716
743.197
725.204
707.845
691.207
675.359
660.373
646.304
633.207
621.14
610.16
600.327
591.705
584.341
578.274
573.498
569.95
567.507
566.03
565.195
564.637
564.211
563.715
563.158
562.591
562.048
561.554
561.158
560.867
560.695
560.674
560.782
561.007
561.418
561.606
560.824
560.521
560.278
560.244
559.103
555.07
550.875
545.485
1010.98
1018.39
1017.44
1017.15
1016.81
1016.41
1016.03
1015.64
1015.27
1014.91
1014.57
1014.24
1013.93
1013.63
1013.35
1013.06
1012.78
1012.46
1012.12
1011.72
1011.23
1010.63
1009.88
1008.91
1007.68
1006.12
1004.14
1000.52
994.906
987.642
978.858
968.564
956.776
943.535
928.938
913.125
896.252
878.521
860.137
841.308
822.234
803.115
784.116
765.405
747.108
729.349
712.225
695.817
680.192
665.415
651.531
638.587
626.627
615.693
605.827
597.076
589.477
583.036
577.748
573.637
570.658
568.56
566.982
565.691
564.586
563.651
562.876
562.297
561.859
561.508
561.283
561.188
561.184
561.315
561.585
561.899
562.44
562.747
561.918
561.531
561.26
561.218
560.107
556.424
552.428
546.986
1007.22
1017.4
1016.74
1016.68
1016.57
1016.39
1016.23
1016.04
1015.88
1015.71
1015.56
1015.41
1015.28
1015.15
1015.03
1014.9
1014.76
1014.59
1014.38
1014.1
1013.74
1013.24
1012.58
1011.7
1010.54
1009.04
1007.07
1003.32
997.616
990.308
981.504
971.213
959.443
946.237
931.697
915.963
899.194
881.594
863.365
844.713
825.84
806.943
788.184
769.723
751.687
734.194
717.336
701.194
685.826
671.288
657.622
644.864
633.043
622.191
612.333
603.504
595.709
588.942
583.279
578.724
575.173
572.274
569.773
567.614
565.812
564.448
563.435
562.706
562.261
562.042
561.982
562.091
562.332
562.718
563.22
563.659
564.354
564.769
563.94
563.475
563.161
563.03
561.842
558.44
554.638
549.119
1004.85
1017.38
1016.99
1017.14
1017.21
1017.23
1017.24
1017.23
1017.24
1017.23
1017.24
1017.25
1017.27
1017.28
1017.29
1017.29
1017.27
1017.22
1017.11
1016.93
1016.66
1016.24
1015.65
1014.83
1013.72
1012.25
1010.25
1006.37
1000.57
993.225
984.406
974.124
962.384
949.23
934.773
919.148
902.519
885.089
867.056
848.625
829.999
811.365
792.886
774.719
756.986
739.803
723.253
707.418
692.347
678.089
664.681
652.149
640.514
629.795
620.006
611.153
603.229
596.29
590.404
585.442
581.11
577.252
573.881
571.044
568.833
567.148
565.962
565.189
564.77
564.655
564.708
564.907
565.227
565.666
566.15
566.514
567.387
567.887
566.992
566.431
566.054
565.774
564.413
561.201
557.546
551.921
1003.91
1018.38
1018.21
1018.53
1018.77
1018.93
1019.1
1019.23
1019.37
1019.49
1019.62
1019.75
1019.88
1020
1020.12
1020.21
1020.29
1020.32
1020.29
1020.19
1019.97
1019.61
1019.06
1018.28
1017.19
1015.74
1013.68
1009.65
1003.76
996.372
987.55
977.287
965.594
952.52
938.172
922.693
906.245
889.024
871.234
853.072
834.742
816.419
798.274
780.45
763.072
746.247
730.058
714.579
699.855
685.929
672.834
660.586
649.2
638.685
629.035
620.24
612.35
605.436
599.293
593.762
588.66
584.032
580.082
576.952
574.659
572.948
571.799
571.141
570.772
570.603
570.509
570.454
570.469
570.67
570.89
570.997
571.785
572.162
571.217
570.471
569.951
569.491
567.906
564.799
561.206
555.427
1004.25
1020.31
1020.33
1020.79
1021.15
1021.43
1021.7
1021.94
1022.18
1022.4
1022.63
1022.84
1023.05
1023.25
1023.44
1023.61
1023.75
1023.83
1023.86
1023.8
1023.62
1023.29
1022.77
1021.99
1020.91
1019.45
1017.31
1013.11
1007.14
999.726
990.909
980.686
969.066
956.1
941.896
926.606
910.384
893.423
875.928
858.091
840.112
822.159
804.409
786.987
770.021
753.615
737.848
722.784
708.474
694.949
682.239
670.354
659.301
649.078
639.664
631.111
623.445
616.511
610.038
603.873
598.295
593.572
589.887
587.109
585.115
583.796
582.898
582.336
581.885
581.436
580.89
580.197
579.479
578.659
577.724
577.309
577.93
578.029
576.812
575.801
575.051
574.314
572.405
569.295
565.637
559.663
1005.68
1023.05
1023.19
1023.76
1024.21
1024.58
1024.93
1025.24
1025.55
1025.84
1026.13
1026.4
1026.67
1026.93
1027.17
1027.38
1027.55
1027.68
1027.73
1027.69
1027.53
1027.21
1026.68
1025.91
1024.81
1023.32
1021.07
1016.71
1010.68
1003.26
994.465
984.303
972.785
959.965
945.953
930.898
914.954
898.31
881.172
863.721
846.157
828.643
811.346
794.397
777.918
762.001
746.731
732.165
718.349
705.316
693.085
681.667
671.061
661.252
652.282
644.16
636.732
629.596
622.898
616.811
611.596
607.663
604.865
603.15
602.15
601.643
601.166
600.588
599.716
598.44
596.728
594.638
592.552
590.396
587.81
586.555
586.162
585.156
583.447
581.778
580.622
579.77
577.831
574.81
570.918
564.738
1007.9
1026.41
1026.6
1027.27
1027.78
1028.2
1028.61
1028.97
1029.33
1029.66
1030
1030.31
1030.62
1030.9
1031.17
1031.41
1031.6
1031.74
1031.81
1031.78
1031.61
1031.29
1030.75
1029.95
1028.83
1027.31
1024.93
1020.42
1014.35
1006.93
998.186
988.119
976.744
964.114
950.342
935.577
919.971
903.708
886.993
869.999
852.922
835.924
819.161
802.766
786.853
771.516
756.834
742.867
729.653
717.226
705.607
694.797
684.792
675.632
667.329
659.641
652.336
645.42
639.216
634.261
630.896
629.043
628.157
628.186
628.563
628.837
628.585
627.702
626.096
623.649
620.329
616.291
612.143
607.091
601.359
598.715
597.098
598.57
596.6
593.647
591.136
588.712
585.599
581.775
577.111
568.671
1010.72
1030.2
1030.39
1031.13
1031.69
1032.15
1032.59
1032.99
1033.38
1033.74
1034.1
1034.44
1034.77
1035.07
1035.35
1035.6
1035.8
1035.95
1036.01
1035.97
1035.79
1035.45
1034.89
1034.06
1032.91
1031.35
1028.84
1024.19
1018.1
1010.71
1002.05
992.119
980.927
968.538
955.063
940.649
925.451
909.643
893.425
876.97
860.462
844.064
827.924
812.179
796.933
782.283
768.306
755.062
742.589
730.921
720.087
710.078
700.943
692.691
685.058
677.91
671.172
665.67
661.755
659.574
659.256
660.166
662.328
664.72
666.771
668.037
668.069
666.632
663.556
658.774
652.513
645.303
638.193
630.021
620.99
616.04
612.2
595.014
592.014
592.22
591.643
590.497
588.095
585.016
580.888
1013.94
1034.27
1034.41
1035.21
1035.81
1036.29
1036.76
1037.17
1037.58
1037.96
1038.34
1038.68
1039.02
1039.33
1039.62
1039.87
1040.07
1040.21
1040.26
1040.2
1040.01
1039.64
1039.05
1038.19
1036.99
1035.4
1032.75
1028
1021.91
1014.59
1006.05
996.29
985.332
973.241
960.125
946.131
931.414
916.137
900.498
884.669
868.82
853.121
837.71
822.724
808.267
794.437
781.311
768.948
757.398
746.701
736.88
727.984
720.015
712.762
706.021
700.252
695.893
693.551
693.679
696.35
700.697
705.836
711.437
716.133
719.521
721.358
721.24
718.937
714.218
707.023
697.724
687.058
676.02
661.437
646.769
638.44
630.309
1017.43
1038.53
1038.57
1039.41
1040.04
1040.54
1041.02
1041.45
1041.87
1042.25
1042.63
1042.98
1043.33
1043.64
1043.92
1044.16
1044.36
1044.48
1044.51
1044.44
1044.21
1043.81
1043.19
1042.29
1041.06
1039.43
1036.62
1031.82
1025.77
1018.55
1010.17
1000.62
989.953
978.22
965.529
952.026
937.867
923.208
908.235
893.13
878.048
863.156
848.6
834.504
820.981
808.132
796.034
784.765
774.38
764.926
756.479
749.049
742.438
736.602
732.175
729.527
730.072
733.647
739.807
747.994
757.604
767.743
777.039
784.77
790.566
793.971
794.157
790.371
782.289
770.392
755.887
740.126
724.296
704.328
684.74
671.079
653.219
1021.07
1042.93
1042.79
1043.67
1044.32
1044.83
1045.32
1045.75
1046.17
1046.56
1046.94
1047.29
1047.62
1047.93
1048.21
1048.44
1048.61
1048.72
1048.73
1048.62
1048.37
1047.94
1047.28
1046.34
1045.08
1043.42
1040.45
1035.63
1029.65
1022.57
1014.39
1005.11
994.786
983.474
971.276
958.339
944.822
930.871
916.666
902.386
888.191
874.233
860.665
847.617
835.205
823.534
812.701
802.794
793.884
786.08
779.423
773.756
769.295
766.54
766.97
770.699
777.895
789.086
803.104
818.95
834.442
848.742
861.013
870.817
877.9
881.817
881.681
876.701
866.621
852.124
834.581
815.151
793.701
762.093
733.534
713.341
687.808
1024.8
1047.4
1047.02
1047.95
1048.61
1049.13
1049.61
1050.04
1050.46
1050.84
1051.22
1051.56
1051.89
1052.18
1052.45
1052.66
1052.82
1052.9
1052.88
1052.75
1052.47
1052
1051.3
1050.33
1049.03
1047.35
1044.22
1039.43
1033.56
1026.65
1018.71
1009.75
999.827
989
977.368
965.077
952.284
939.139
925.807
912.463
899.279
886.404
873.985
862.163
851.073
840.833
831.554
823.357
816.374
810.694
806.255
803.444
803.322
806.939
814.425
827.109
843.92
862.992
883.67
905.339
925.465
943.51
959.574
973.346
982.374
986.643
986.549
981.429
968.385
948.11
925.045
900.84
874.905
838.554
805.274
775.437
733.846
1028.54
1051.91
1051.23
1052.19
1052.87
1053.39
1053.87
1054.3
1054.71
1055.09
1055.45
1055.78
1056.1
1056.38
1056.62
1056.81
1056.95
1057
1056.96
1056.79
1056.47
1055.97
1055.23
1054.23
1052.9
1051.2
1047.95
1043.21
1037.48
1030.78
1023.13
1014.54
1005.07
994.791
983.8
972.235
960.254
948.012
935.665
923.384
911.345
899.709
888.629
878.253
868.736
860.227
852.882
846.873
842.351
839.397
838.609
841.385
848.299
861.042
878.104
899.164
924.293
951.03
979.154
1002.46
1022.63
1039.4
1052.93
1063.35
1069.99
1072.99
1072.73
1069
1060.32
1046.66
1029.67
1009.12
981.166
930.784
887.824
850.155
801.254
1032.23
1056.46
1055.4
1056.39
1057.08
1057.6
1058.08
1058.49
1058.89
1059.26
1059.61
1059.93
1060.23
1060.49
1060.71
1060.88
1060.99
1061.01
1060.94
1060.74
1060.38
1059.84
1059.07
1058.03
1056.68
1054.97
1051.61
1046.96
1041.41
1034.96
1027.64
1019.47
1010.51
1000.84
990.562
979.801
968.721
957.477
946.23
935.149
924.407
914.183
904.645
895.967
888.337
881.945
877.014
873.765
872.432
873.968
879.633
890.699
906.676
927.837
954.113
983.395
1010.98
1037.54
1062.22
1081.91
1097.42
1109.08
1117.65
1123.6
1127
1127.8
1126.52
1123.15
1116.88
1107.54
1095.77
1081.32
1062.02
1028.91
994.677
948.698
870.873
1035.84
1061.01
1059.49
1060.51
1061.22
1061.73
1062.2
1062.61
1063
1063.35
1063.69
1063.99
1064.27
1064.51
1064.71
1064.85
1064.93
1064.92
1064.81
1064.57
1064.18
1063.6
1062.8
1061.74
1060.36
1058.65
1055.22
1050.69
1045.34
1039.18
1032.23
1024.53
1016.14
1007.13
997.632
987.756
977.663
967.515
957.483
947.736
938.458
929.838
922.078
915.387
910.004
906.201
904.273
904.614
908.38
917.061
931.227
950.102
974.919
1001.19
1029.12
1057.46
1083
1105.31
1123.8
1137.42
1147.19
1153.88
1158.05
1160.4
1161.31
1160.76
1158.95
1155.85
1151.03
1144.27
1135.81
1125.42
1111.84
1089.6
1064.37
1029.74
1039.32
1065.56
1063.5
1064.54
1065.27
1065.77
1066.24
1066.63
1067.01
1067.34
1067.66
1067.95
1068.21
1068.42
1068.6
1068.71
1068.76
1068.72
1068.57
1068.3
1067.87
1067.26
1066.42
1065.33
1063.95
1062.23
1058.78
1054.39
1049.28
1043.44
1036.9
1029.7
1021.92
1013.64
1004.98
996.065
987.043
978.089
969.378
961.097
953.448
946.64
940.919
936.549
933.85
933.185
935.143
941.061
952.279
967.917
989.729
1011.87
1037.74
1064.65
1091.25
1115.9
1136.63
1153.17
1165.39
1173.56
1178.65
1181.5
1182.94
1183.34
1182.91
1181.63
1179.57
1176.68
1172.71
1167.51
1161.15
1153.46
1143.67
1128.31
1109.6
1083.03
1042.65
1070.11
1067.41
1068.47
1069.21
1069.72
1070.17
1070.55
1070.92
1071.24
1071.54
1071.8
1072.04
1072.23
1072.38
1072.46