/*--------------------------------*- C++ -*----------------------------------*\
  =========                 |
  \\      /  F ield         | OpenFOAM: The Open Source CFD Toolbox
   \\    /   O peration     | Website:  https://openfoam.org
    \\  /    A nd           | Version:  9
     \\/     M anipulation  |
\*---------------------------------------------------------------------------*/
FoamFile
{
    format      ascii;
    class       volVectorField;
    location    "3000";
    object      U;
}
// * * * * * * * * * * * * * * * * * * * * * * * * * * * * * * * * * * * * * //

dimensions      [0 1 -1 0 0 0 0];

internalField   nonuniform List<vector> 
13617
(
(1.15184 -2.8851e-05 -4.49271e-21)
(1.15192 -1.96219e-05 4.65902e-21)
(1.15196 5.11976e-06 3.94996e-26)
(1.15199 3.55029e-05 -4.18709e-26)
(1.15202 7.54003e-05 -6.08453e-21)
(1.15204 0.000116247 5.1017e-26)
(1.15206 0.000163414 -5.40795e-26)
(1.15208 0.00021113 3.87473e-21)
(1.15209 0.000263101 -4.19402e-21)
(1.15211 0.000315682 -4.50021e-21)
(1.15212 0.000371147 -4.81338e-21)
(1.15214 0.000427218 -5.10181e-21)
(1.15216 0.00048521 2.70052e-21)
(1.15218 0.000543606 -2.82781e-21)
(1.1522 0.000603099 -2.92635e-21)
(1.15222 0.000662562 -2.99835e-21)
(1.15225 0.000722205 -3.02308e-21)
(1.15228 0.000781101 -1.88856e-25)
(1.15232 0.000839047 0)
(1.15236 0.00089513 -4.18588e-24)
(1.1524 0.000948802 -1.12004e-21)
(1.15245 0.000999028 0)
(1.15251 0.00104494 0)
(1.15258 0.00108531 -1.12581e-22)
(1.15266 0.00111897 1.19554e-25)
(1.15274 0.00114445 5.70308e-25)
(1.15285 0.00116029 -1.50412e-24)
(1.15296 0.00116482 -2.2848e-21)
(1.1531 0.00115631 0)
(1.15325 0.0011329 0)
(1.15342 0.00109265 2.97347e-21)
(1.15362 0.00103353 -3.88402e-21)
(1.15385 0.00095344 1.07441e-23)
(1.15411 0.000850223 -6.32252e-21)
(1.1544 0.000721597 -1.43182e-23)
(1.15472 0.000565219 9.83071e-21)
(1.15509 0.000378585 6.00241e-21)
(1.1555 0.000159013 0)
(1.15596 -9.63355e-05 -8.87612e-21)
(1.15646 -0.000390735 0)
(1.15702 -0.000727793 0)
(1.15764 -0.0011116 0)
(1.15831 -0.00154688 8.81658e-21)
(1.15904 -0.0020391 3.30588e-22)
(1.15983 -0.00259453 -1.83892e-22)
(1.16068 -0.00322041 0)
(1.1616 -0.00392501 -2.73554e-22)
(1.16257 -0.00471764 -1.90275e-20)
(1.16361 -0.00560891 0)
(1.16471 -0.00661043 1.26925e-20)
(1.16586 -0.00773486 -1.44971e-20)
(1.16708 -0.00899633 0)
(1.16836 -0.0104092 0)
(1.16969 -0.0119897 -2.13373e-20)
(1.17109 -0.0137536 -1.19131e-20)
(1.17255 -0.0157176 -1.49166e-22)
(1.17408 -0.0178999 -1.49732e-20)
(1.17569 -0.0203171 2.29656e-22)
(1.17738 -0.0229877 -2.10167e-20)
(1.17918 -0.0259292 -3.90918e-20)
(1.18109 -0.0291594 0)
(1.18315 -0.0326973 1.59186e-20)
(1.18539 -0.0365624 -7.07953e-21)
(1.18784 -0.0407746 7.80828e-21)
(1.19055 -0.045356 1.31155e-20)
(1.19357 -0.0503316 5.10114e-22)
(1.19699 -0.0557313 1.55669e-20)
(1.20088 -0.0615905 3.27092e-22)
(1.20536 -0.0679509 -6.17484e-21)
(1.21055 -0.0748712 -4.95367e-22)
(1.2166 -0.0824197 -8.13707e-21)
(1.22373 -0.0906953 -9.14668e-21)
(1.23215 -0.0998289 0)
(1.2422 -0.109991 -1.17867e-20)
(1.25432 -0.121443 1.2136e-20)
(1.26887 -0.134556 -1.8782e-21)
(1.28565 -0.149783 -3.43713e-21)
(1.30485 -0.167556 5.82012e-20)
(1.33036 -0.188799 0)
(1.3698 -0.216358 1.31488e-20)
(1.42253 -0.254575 3.70444e-20)
(1.46602 -0.303386 -3.67965e-20)
(1.46351 -0.353006 -3.10377e-20)
(1.38826 -0.388558 9.52873e-20)
(1.23491 -0.399692 -7.53684e-20)
(1.00934 -0.382653 1.19264e-19)
(1.15184 -2.8919e-05 -4.50392e-21)
(1.15192 -1.95968e-05 4.60777e-21)
(1.15196 5.64911e-06 -5.08306e-21)
(1.15199 3.63938e-05 8.45346e-26)
(1.15202 7.66681e-05 1.334e-27)
(1.15204 0.000117854 -6.55732e-21)
(1.15206 0.000165359 3.57107e-21)
(1.15208 0.000213404 -3.87338e-21)
(1.15209 0.000265676 6.31729e-26)
(1.15211 0.000318555 0)
(1.15213 0.000374345 4.7878e-21)
(1.15214 0.00043073 1.0187e-20)
(1.15216 0.000489063 -1.64503e-25)
(1.15218 0.000547823 2.81365e-21)
(1.1522 0.000607693 6.93366e-24)
(1.15223 0.000667587 2.99737e-21)
(1.15225 0.000727683 3.02286e-21)
(1.15228 0.000787072 0)
(1.15232 0.00084555 0)
(1.15236 0.00090221 -2.61756e-21)
(1.1524 0.000956488 2.23626e-21)
(1.15245 0.00100737 -2.45302e-25)
(1.15251 0.00105395 3.79575e-26)
(1.15258 0.00109501 -2.98162e-24)
(1.15266 0.00112935 4.21791e-22)
(1.15275 0.00115549 -5.7039e-25)
(1.15285 0.00117194 -2.95072e-25)
(1.15296 0.001177 2.287e-21)
(1.1531 0.0011689 -1.83253e-24)
(1.15325 0.0011457 4.47012e-21)
(1.15342 0.00110545 0)
(1.15362 0.00104604 0)
(1.15384 0.000965306 -4.99992e-21)
(1.1541 0.000860961 6.32468e-21)
(1.15438 0.000730721 -7.88849e-21)
(1.15471 0.000572099 0)
(1.15507 0.000382542 6.00954e-21)
(1.15548 0.000159272 0)
(1.15593 -0.000100732 1.77356e-20)
(1.15643 -0.000400661 0)
(1.15698 -0.000744324 0)
(1.15758 -0.0011358 -1.25267e-22)
(1.15824 -0.0015799 1.32568e-22)
(1.15896 -0.00208202 0)
(1.15974 -0.00264842 -1.22621e-20)
(1.16057 -0.00328636 -1.42817e-20)
(1.16146 -0.00400392 -2.72154e-22)
(1.16241 -0.0048103 2.87714e-22)
(1.16342 -0.00571582 3.60374e-22)
(1.16448 -0.00673195 -1.31027e-20)
(1.1656 -0.00787108 1.45347e-20)
(1.16677 -0.00914709 0)
(1.16799 -0.0105741 0)
(1.16927 -0.0121675 -6.818e-22)
(1.17059 -0.0139437 1.26796e-20)
(1.17197 -0.0159191 -1.94321e-21)
(1.1734 -0.0181108 2.08687e-21)
(1.1749 -0.0205369 1.68015e-20)
(1.17647 -0.0232153 1.871e-20)
(1.17812 -0.0261648 2.34181e-20)
(1.17987 -0.0294046 1.13578e-20)
(1.18173 -0.0329539 -2.49477e-20)
(1.18375 -0.0368354 -6.92775e-21)
(1.18594 -0.0410716 7.62607e-21)
(1.18835 -0.0456894 -4.09229e-21)
(1.19104 -0.0507182 7.52671e-22)
(1.19405 -0.0561925 -4.53004e-22)
(1.19746 -0.0621576 -5.71462e-21)
(1.20136 -0.0686659 5.96344e-21)
(1.20586 -0.0757855 -6.93118e-21)
(1.21107 -0.0836047 -5.5128e-22)
(1.21715 -0.0922376 8.04124e-21)
(1.22426 -0.101835 -9.69612e-21)
(1.23263 -0.112598 1.00309e-20)
(1.24258 -0.124801 0)
(1.25439 -0.138856 -1.63631e-21)
(1.26778 -0.155267 -1.66643e-20)
(1.28236 -0.174427 -1.96305e-20)
(1.30011 -0.196903 2.29785e-20)
(1.32713 -0.224744 -3.69871e-20)
(1.36689 -0.26221 0)
(1.40833 -0.31185 0)
(1.42484 -0.368734 -2.3291e-20)
(1.38915 -0.420888 8.75454e-20)
(1.28685 -0.455936 -9.37484e-20)
(1.11612 -0.466267 -9.35e-20)
(1.15184 -2.92997e-05 4.50444e-21)
(1.15192 -1.95964e-05 -4.60787e-21)
(1.15196 6.21095e-06 1.01353e-20)
(1.15199 3.73461e-05 -1.20699e-27)
(1.15202 7.80232e-05 9.17579e-26)
(1.15204 0.000119565 6.55808e-21)
(1.15206 0.000167414 -7.12986e-21)
(1.15208 0.000215761 3.84785e-21)
(1.15209 0.000268356 -1.27882e-25)
(1.15211 0.000321531 4.46246e-21)
(1.15213 0.000377615 -4.78805e-21)
(1.15214 0.000434319 -1.45941e-23)
(1.15216 0.000492963 1.62746e-25)
(1.15218 0.000552069 -7.91958e-24)
(1.1522 0.000612296 2.91931e-21)
(1.15223 0.000672584 0)
(1.15226 0.000733111 3.00678e-21)
(1.15229 0.000792966 -2.96697e-21)
(1.15232 0.000851942 -1.42117e-21)
(1.15236 0.000909147 1.30727e-21)
(1.15241 0.000964011 -4.90677e-24)
(1.15246 0.0010155 8.27709e-22)
(1.15252 0.00106272 0)
(1.15258 0.00110443 -4.34412e-24)
(1.15266 0.00113942 -4.21631e-22)
(1.15275 0.0011662 -9.02814e-25)
(1.15285 0.00118324 6.04987e-25)
(1.15296 0.0011888 0)
(1.1531 0.00118108 3.66305e-24)
(1.15325 0.00115812 -4.47285e-21)
(1.15342 0.00111787 0)
(1.15361 0.00105818 3.88399e-21)
(1.15384 0.000976825 4.99046e-21)
(1.15409 0.00087147 -6.32084e-21)
(1.15437 0.000739681 7.91933e-21)
(1.15469 0.000578962 0)
(1.15505 0.000386589 -6.01217e-21)
(1.15545 0.00015979 0)
(1.1559 -0.000104584 -8.85922e-21)
(1.15639 -0.000409834 0)
(1.15693 -0.000759764 0)
(1.15752 -0.00115858 1.24762e-22)
(1.15817 -0.00161096 1.49413e-23)
(1.15888 -0.00212256 1.67896e-23)
(1.15963 -0.00269939 2.40952e-20)
(1.16045 -0.00334861 3.02782e-22)
(1.16132 -0.00407839 1.64674e-20)
(1.16224 -0.00489765 -1.86947e-20)
(1.16322 -0.00581645 -3.29313e-22)
(1.16424 -0.00684603 1.20987e-20)
(1.16532 -0.00799852 4.31856e-22)
(1.16644 -0.00928711 0)
(1.16761 -0.0107263 0)
(1.16882 -0.0123304 2.07011e-20)
(1.17007 -0.0141155 -7.56214e-22)
(1.17136 -0.0160979 -2.71905e-20)
(1.17269 -0.018295 1.47243e-20)
(1.17408 -0.0207242 -1.63214e-20)
(1.17552 -0.0234037 -1.57779e-20)
(1.17702 -0.0263528 -2.5823e-21)
(1.1786 -0.0295912 2.42823e-21)
(1.18027 -0.0331396 9.31163e-21)
(1.18206 -0.0370219 -1.53706e-22)
(1.184 -0.0412626 3.62585e-21)
(1.18611 -0.0458901 0)
(1.18844 -0.050939 3.56895e-20)
(1.19104 -0.056447 -9.98752e-21)
(1.19397 -0.0624643 0)
(1.19729 -0.0690471 0)
(1.20108 -0.076272 0)
(1.20544 -0.0842326 -1.46705e-20)
(1.21047 -0.0930498 0)
(1.21628 -0.102882 8.99328e-21)
(1.223 -0.113926 -1.8597e-20)
(1.23086 -0.126459 2.16496e-20)
(1.24003 -0.140863 -3.74765e-20)
(1.25027 -0.157618 -1.42622e-21)
(1.26093 -0.177125 1.49841e-20)
(1.27268 -0.199823 1.68671e-20)
(1.28963 -0.227276 0)
(1.31627 -0.263161 2.68066e-20)
(1.3487 -0.310949 -2.67766e-20)
(1.37005 -0.368935 0)
(1.35753 -0.42857 1.91322e-20)
(1.29357 -0.478011 8.96948e-20)
(1.17037 -0.507029 -1.35139e-19)
(1.15184 -2.97593e-05 3.32742e-26)
(1.15192 -1.95477e-05 -7.07951e-26)
(1.15196 6.82502e-06 -2.87797e-23)
(1.15199 3.83503e-05 0)
(1.15202 7.94266e-05 5.9879e-21)
(1.15204 0.000121321 -6.50643e-21)
(1.15206 0.00016949 3.55846e-21)
(1.15208 0.000218159 -3.84808e-21)
(1.15209 0.000271028 4.14492e-21)
(1.15211 0.000324485 -4.46284e-21)
(1.15213 0.00038086 7.28313e-26)
(1.15215 0.00043783 -1.3618e-23)
(1.15216 0.000496784 1.62308e-25)
(1.15218 0.000556199 -7.59505e-24)
(1.15221 0.000616774 1.79322e-25)
(1.15223 0.000677415 2.97435e-21)
(1.15226 0.000738335 -8.13608e-24)
(1.15229 0.000798625 2.96716e-21)
(1.15232 0.000858081 4.05492e-24)
(1.15236 0.000915789 6.27151e-25)
(1.15241 0.000971198 -4.72575e-24)
(1.15246 0.00102327 -8.28014e-22)
(1.15252 0.00107109 0)
(1.15259 0.00111342 1.19888e-22)
(1.15266 0.00114903 3.14289e-25)
(1.15275 0.0011764 -3.3309e-25)
(1.15285 0.00119399 1.51333e-21)
(1.15297 0.00120003 -2.28814e-21)
(1.1531 0.00119267 -3.66301e-24)
(1.15325 0.00116992 3.88138e-24)
(1.15342 0.00112967 -2.98153e-21)
(1.15361 0.00106971 -3.87789e-21)
(1.15383 0.000987756 1.07044e-23)
(1.15408 0.000881385 6.29777e-21)
(1.15436 0.00074809 0)
(1.15468 0.000585296 0)
(1.15503 0.00039022 -5.96123e-21)
(1.15543 0.000159917 3.88118e-24)
(1.15587 -0.000108712 -6.92419e-23)
(1.15635 -0.000419201 8.31369e-23)
(1.15688 -0.000775249 -4.67113e-23)
(1.15747 -0.00118119 1.24325e-22)
(1.15811 -0.00164183 -1.31593e-22)
(1.15879 -0.00216253 0)
(1.15954 -0.00274967 -1.24144e-20)
(1.16033 -0.00341007 1.44336e-20)
(1.16118 -0.00415155 -1.6486e-20)
(1.16208 -0.00498326 3.82327e-20)
(1.16302 -0.00591489 -1.08246e-20)
(1.16402 -0.00695736 -1.29013e-20)
(1.16505 -0.00812245 1.41533e-20)
(1.16613 -0.00942298 5.23285e-22)
(1.16724 -0.0108728 -5.52642e-22)
(1.16839 -0.0124867 -2.07478e-20)
(1.16957 -0.0142793 7.46865e-22)
(1.17078 -0.0162674 1.22873e-20)
(1.17202 -0.0184674 0)
(1.1733 -0.0208968 1.62684e-20)
(1.17461 -0.0235741 1.57721e-20)
(1.17597 -0.0265185 2.45164e-20)
(1.17739 -0.02975 -1.37138e-20)
(1.17889 -0.0332912 3.07167e-21)
(1.18047 -0.0371651 -3.22927e-21)
(1.18216 -0.0413989 0)
(1.184 -0.0460234 -4.04327e-21)
(1.186 -0.0510738 -1.7814e-20)
(1.18823 -0.0565914 -4.63947e-21)
(1.19071 -0.0626283 4.82795e-21)
(1.19351 -0.0692451 5.52587e-21)
(1.19667 -0.0765202 1.83759e-20)
(1.20028 -0.0845501 3.48648e-22)
(1.20439 -0.0934538 -7.24727e-21)
(1.20909 -0.10339 0)
(1.21444 -0.11455 9.44062e-21)
(1.22057 -0.127187 -6.38221e-23)
(1.2276 -0.141649 -1.08278e-20)
(1.23534 -0.158375 -1.19376e-20)
(1.2431 -0.177745 0)
(1.2508 -0.200112 -1.7373e-20)
(1.26069 -0.226517 1.95262e-20)
(1.27637 -0.259705 -1.02324e-20)
(1.29727 -0.30302 1.09098e-20)
(1.31368 -0.356752 -3.11007e-20)
(1.30906 -0.415717 1.14094e-20)
(1.26747 -0.470478 -4.25848e-20)
(1.17893 -0.51082 4.52316e-20)
(1.15184 -3.01074e-05 0)
(1.15192 -1.94254e-05 4.50937e-21)
(1.15196 7.50122e-06 -5.02419e-21)
(1.15199 3.94149e-05 5.42272e-21)
(1.15202 8.08777e-05 -1.19535e-20)
(1.15204 0.000123102 1.29903e-20)
(1.15206 0.0001716 -1.06593e-25)
(1.15208 0.000220533 3.8242e-21)
(1.1521 0.000273694 -4.14454e-21)
(1.15211 0.00032741 0)
(1.15213 0.000384035 4.7484e-21)
(1.15215 0.000441274 -5.05992e-21)
(1.15217 0.000500497 1.26155e-27)
(1.15219 0.000560198 -2.79854e-21)
(1.15221 0.000621074 -2.89647e-21)
(1.15223 0.000682059 -2.97456e-21)
(1.15226 0.000743355 -2.99898e-21)
(1.15229 0.00080404 -2.95062e-21)
(1.15233 0.000863928 4.27879e-24)
(1.15237 0.000922113 -1.29395e-21)
(1.15241 0.000978037 -1.1066e-21)
(1.15246 0.00103064 -8.18729e-22)
(1.15252 0.00107904 0)
(1.15259 0.00112195 1.29066e-22)
(1.15266 0.00115814 3.15275e-25)
(1.15275 0.00118608 -3.34136e-25)
(1.15285 0.00120419 -3.02638e-21)
(1.15297 0.00121068 -3.57329e-25)
(1.1531 0.00120367 3.66236e-24)
(1.15325 0.00118109 -8.81852e-24)
(1.15342 0.00114083 2.98073e-21)
(1.15361 0.0010806 0)
(1.15383 0.000998021 -4.9729e-21)
(1.15407 0.000890655 0)
(1.15435 0.000755899 0)
(1.15466 0.000591055 9.71704e-21)
(1.15501 0.000393311 6.00993e-21)
(1.1554 0.000159619 0)
(1.15584 -0.000113236 0)
(1.15631 -0.000428745 -4.39876e-23)
(1.15684 -0.000790868 4.6578e-23)
(1.15741 -0.00120379 0)
(1.15804 -0.00167242 -1.45843e-22)
(1.15871 -0.00220212 1.54351e-22)
(1.15944 -0.0027991 -1.20919e-20)
(1.16022 -0.00347031 0)
(1.16104 -0.0042234 -2.67192e-22)
(1.16192 -0.00506716 -1.86283e-20)
(1.16283 -0.00601098 1.05115e-20)
(1.16379 -0.00706575 -2.97583e-23)
(1.16479 -0.00824283 -1.42028e-20)
(1.16582 -0.0095546 -3.49027e-23)
(1.16688 -0.0110142 -1.68593e-20)
(1.16796 -0.0126359 1.96369e-20)
(1.16907 -0.014435 7.37529e-22)
(1.1702 -0.0164265 1.19255e-20)
(1.17135 -0.0186272 -1.83433e-21)
(1.17253 -0.0210543 1.93431e-21)
(1.17372 -0.0237259 -2.25273e-21)
(1.17495 -0.0266614 1.93977e-21)
(1.17622 -0.0298811 0)
(1.17753 -0.0334074 8.59639e-21)
(1.17891 -0.0372654 1.58607e-20)
(1.18037 -0.0414823 3.59818e-21)
(1.18193 -0.0460892 1.49591e-22)
(1.18363 -0.0511246 -4.12386e-21)
(1.18549 -0.0566287 9.34212e-21)
(1.18755 -0.0626579 -1.01955e-20)
(1.18984 -0.0692708 0)
(1.19242 -0.0765461 -1.21614e-20)
(1.19531 -0.0845813 0)
(1.19857 -0.0934905 -2.09003e-20)
(1.20224 -0.103423 -4.12683e-22)
(1.20634 -0.114557 1.64234e-20)
(1.21093 -0.127123 9.69906e-21)
(1.21606 -0.14142 -1.00435e-20)
(1.22157 -0.15783 1.38193e-21)
(1.22685 -0.176696 0)
(1.23139 -0.198277 0)
(1.23617 -0.223181 0)
(1.24369 -0.253224 -9.93645e-21)
(1.25468 -0.291134 -2.03347e-20)
(1.26409 -0.338179 -2.39192e-20)
(1.26084 -0.391744 2.42079e-20)
(1.23219 -0.445249 1.48424e-20)
(1.16829 -0.49008 -1.5515e-20)
(1.15184 -3.03517e-05 0)
(1.15192 -1.92459e-05 -4.50955e-21)
(1.15196 8.23302e-06 0)
(1.152 4.05136e-05 -5.42294e-21)
(1.15202 8.2366e-05 5.96452e-21)
(1.15204 0.000124907 -1.29447e-20)
(1.15206 0.000173707 0)
(1.15208 0.000222913 -3.82476e-21)
(1.1521 0.000276319 0)
(1.15211 0.000330275 0)
(1.15213 0.000387143 -4.74844e-21)
(1.15215 0.000444619 5.03296e-21)
(1.15217 0.000504085 -2.65866e-21)
(1.15219 0.000564048 1.7118e-25)
(1.15221 0.000625217 2.89675e-21)
(1.15223 0.000686503 3.52601e-25)
(1.15226 0.000748129 -3.73741e-25)
(1.15229 0.000809187 2.95079e-21)
(1.15233 0.000869487 2.82108e-21)
(1.15237 0.000928112 1.29346e-21)
(1.15241 0.000984505 -1.09768e-21)
(1.15247 0.00103762 8.18538e-22)
(1.15252 0.00108654 -3.37198e-26)
(1.15259 0.00113 -1.28921e-22)
(1.15267 0.00116674 -1.24339e-25)
(1.15275 0.00119521 0)
(1.15285 0.00121381 1.51391e-21)
(1.15297 0.00122072 2.29065e-21)
(1.1531 0.00121401 -2.78655e-24)
(1.15325 0.00119161 -4.93364e-24)
(1.15341 0.00115131 -2.97082e-21)
(1.1536 0.00109078 6.88017e-24)
(1.15382 0.00100763 4.9738e-21)
(1.15406 0.000899257 6.27962e-21)
(1.15434 0.000763055 0)
(1.15465 0.000596212 -9.73971e-21)
(1.15499 0.000395845 5.93344e-21)
(1.15538 0.000158875 2.65827e-23)
(1.1558 -0.000118081 0)
(1.15627 -0.000438563 0)
(1.15679 -0.000806517 1.0429e-22)
(1.15736 -0.00122625 -1.10404e-22)
(1.15797 -0.00170266 8.77383e-21)
(1.15863 -0.00224114 0)
(1.15934 -0.00284772 1.19006e-20)
(1.1601 -0.00352931 -1.40003e-20)
(1.1609 -0.00429346 -1.59336e-20)
(1.16175 -0.00514867 1.86372e-20)
(1.16263 -0.00610429 -1.06908e-20)
(1.16356 -0.00717052 -3.98775e-22)
(1.16451 -0.00835841 4.21543e-22)
(1.1655 -0.00968023 0)
(1.1665 -0.0111485 2.26567e-22)
(1.16753 -0.0127771 -4.02908e-20)
(1.16857 -0.0145801 1.12087e-20)
(1.16962 -0.016573 -2.10163e-22)
(1.17068 -0.0187717 -1.39261e-20)
(1.17175 -0.0211931 0)
(1.17283 -0.0238549 0)
(1.17392 -0.0267765 -1.92581e-20)
(1.17503 -0.0299784 0)
(1.17616 -0.0334829 -1.16402e-20)
(1.17734 -0.0373148 -2.19147e-20)
(1.17857 -0.0415026 1.25814e-22)
(1.17986 -0.0460776 -3.67006e-21)
(1.18125 -0.051078 4.13586e-21)
(1.18275 -0.056546 -4.33991e-21)
(1.18438 -0.0625343 -9.34486e-21)
(1.18618 -0.0691048 -5.29488e-21)
(1.18816 -0.0763307 5.54041e-21)
(1.19036 -0.0843057 0)
(1.19279 -0.0931369 1.97925e-20)
(1.19546 -0.10296 7.08278e-21)
(1.19837 -0.113938 -8.2475e-21)
(1.20152 -0.126266 8.82844e-21)
(1.2049 -0.140196 -9.15814e-21)
(1.20835 -0.156044 2.16057e-20)
(1.21136 -0.174104 -1.09566e-20)
(1.21326 -0.194575 0)
(1.21428 -0.217761 -1.40158e-20)
(1.21596 -0.244776 1.43846e-20)
(1.21944 -0.277573 -7.39961e-21)
(1.22242 -0.317632 9.46539e-21)
(1.21796 -0.363959 -1.73432e-21)
(1.19657 -0.412325 1.79013e-20)
(1.14963 -0.456204 0)
(1.15184 -3.05366e-05 3.24134e-26)
(1.15192 -1.90214e-05 4.44664e-21)
(1.15196 9.0048e-06 4.9419e-21)
(1.152 4.16528e-05 5.37192e-21)
(1.15202 8.38735e-05 4.58343e-26)
(1.15204 0.000126722 6.46067e-21)
(1.15206 0.000175809 -3.51039e-21)
(1.15208 0.000225265 -3.80004e-21)
(1.1521 0.000278918 6.11729e-26)
(1.15212 0.00033308 -6.8519e-26)
(1.15213 0.000390172 -4.72137e-21)
(1.15215 0.000447855 -1.0052e-20)
(1.15217 0.000507556 2.65862e-21)
(1.15219 0.000567751 -2.77733e-21)
(1.15221 0.000629168 1.77944e-25)
(1.15224 0.000690738 3.51576e-25)
(1.15226 0.000752671 -3.72679e-25)
(1.1523 0.000814067 -3.40719e-25)
(1.15233 0.000874736 -4.0924e-24)
(1.15237 0.000933765 -5.59118e-26)
(1.15242 0.000990597 1.09772e-21)
(1.15247 0.00104418 0)
(1.15253 0.00109359 0)
(1.15259 0.00113756 1.37601e-22)
(1.15267 0.00117481 3.16879e-25)
(1.15276 0.00120376 -3.35838e-25)
(1.15286 0.00122281 0)
(1.15297 0.0012301 -2.28427e-21)
(1.1531 0.00122367 -6.44248e-24)
(1.15324 0.0012014 3.87545e-24)
(1.15341 0.00116105 2.96982e-21)
(1.1536 0.00110023 -3.86571e-21)
(1.15381 0.00101645 1.06544e-23)
(1.15405 0.000907103 -6.29154e-21)
(1.15433 0.000769446 0)
(1.15463 0.000600678 -9.66796e-21)
(1.15497 0.000397733 -5.98095e-21)
(1.15535 0.000157494 -7.19658e-21)
(1.15577 -0.000123458 4.08917e-23)
(1.15623 -0.000448763 -7.73125e-23)
(1.15674 -0.000822429 -1.03834e-22)
(1.15729 -0.00124877 2.32689e-22)
(1.15789 -0.00173267 -1.76341e-20)
(1.15854 -0.00227958 1.04069e-20)
(1.15923 -0.00289552 -1.23271e-20)
(1.15997 -0.003587 1.41928e-20)
(1.16075 -0.00436168 1.59187e-20)
(1.16157 -0.00522786 -1.83673e-20)
(1.16243 -0.00619447 1.06962e-20)
(1.16332 -0.00727143 -1.24905e-20)
(1.16423 -0.00846947 -1.37843e-20)
(1.16517 -0.00979989 9.80587e-22)
(1.16612 -0.0112755 -2.9718e-22)
(1.16708 -0.0129089 3.97543e-20)
(1.16805 -0.0147142 -9.78878e-21)
(1.16902 -0.016706 -1.40436e-20)
(1.16999 -0.0188998 1.21745e-20)
(1.17095 -0.021312 -1.52373e-20)
(1.17191 -0.0239599 2.06693e-21)
(1.17287 -0.0268623 0)
(1.17382 -0.0300397 0)
(1.17479 -0.0335142 1.10128e-20)
(1.17576 -0.0373104 9.296e-21)
(1.17675 -0.0414571 -1.31617e-20)
(1.17778 -0.0459841 3.55161e-21)
(1.17886 -0.0509314 0)
(1.18 -0.056337 0)
(1.18122 -0.0622558 4.74749e-21)
(1.18253 -0.068744 -4.7318e-21)
(1.18394 -0.075872 0)
(1.18547 -0.0837269 0)
(1.18711 -0.0924038 -1.92117e-20)
(1.18884 -0.102026 6.57865e-21)
(1.19064 -0.112733 0)
(1.19246 -0.124687 0)
(1.19426 -0.138094 0)
(1.19589 -0.153207 0)
(1.19691 -0.17026 1.87855e-20)
(1.19664 -0.1894 -1.02233e-20)
(1.19488 -0.21077 9.93157e-21)
(1.19242 -0.234955 5.97695e-21)
(1.19035 -0.263249 -1.23859e-20)
(1.18791 -0.296916 1.5213e-20)
(1.18103 -0.335798 -9.48429e-21)
(1.1631 -0.377362 -3.54104e-21)
(1.1272 -0.417007 -5.51033e-21)
(1.15184 -3.0671e-05 4.21818e-21)
(1.15192 -1.87449e-05 -4.44666e-21)
(1.15196 9.81487e-06 -2.85384e-23)
(1.152 4.28285e-05 -5.37226e-21)
(1.15202 8.53996e-05 -4.70895e-26)
(1.15204 0.000128548 9.67678e-26)
(1.15206 0.000177907 3.51066e-21)
(1.15208 0.000227595 1.29449e-23)
(1.1521 0.000281464 -4.09443e-21)
(1.15212 0.000335835 1.35113e-25)
(1.15213 0.000393118 4.72159e-21)
(1.15215 0.000451002 1.00232e-20)
(1.15217 0.000510886 2.64351e-21)
(1.15219 0.000571301 2.77688e-21)
(1.15221 0.000632952 1.72529e-25)
(1.15224 0.000694762 -5.33445e-25)
(1.15227 0.000756976 3.71567e-25)
(1.1523 0.000818677 -3.39594e-25)
(1.15233 0.000879683 -2.8023e-21)
(1.15237 0.000939077 6.1824e-25)
(1.15242 0.000996316 -2.98034e-25)
(1.15247 0.00105032 0)
(1.15253 0.00110019 0)
(1.1526 0.00114462 -1.37608e-22)
(1.15267 0.00118232 0)
(1.15276 0.00121172 -1.14824e-24)
(1.15286 0.00123118 -1.51383e-21)
(1.15297 0.00123881 4.56986e-21)
(1.1531 0.00123262 2.78317e-24)
(1.15324 0.00121045 0)
(1.15341 0.00117 -6.47236e-24)
(1.1536 0.00110885 3.8726e-21)
(1.15381 0.00102445 -4.95469e-21)
(1.15405 0.000914094 1.12622e-23)
(1.15431 0.000775037 0)
(1.15461 0.000604286 9.68904e-21)
(1.15495 0.000398845 4.98714e-23)
(1.15532 0.000155409 7.17414e-21)
(1.15574 -0.00012946 0)
(1.15619 -0.000459483 0)
(1.15669 -0.000838677 0)
(1.15723 -0.00127148 0)
(1.15782 -0.00176276 5.2015e-23)
(1.15845 -0.00231779 -2.04133e-20)
(1.15912 -0.0029426 2.36276e-20)
(1.15984 -0.00364378 -1.96476e-23)
(1.1606 -0.00442852 2.39635e-22)
(1.16139 -0.00530488 -1.83226e-20)
(1.16222 -0.00628171 0)
(1.16307 -0.00736845 1.17088e-20)
(1.16394 -0.00857547 1.33331e-22)
(1.16483 -0.00991376 4.68182e-22)
(1.16573 -0.0113948 3.48955e-20)
(1.16663 -0.0130315 -1.97425e-20)
(1.16752 -0.014837 -1.22713e-20)
(1.16841 -0.0168252 1.48728e-21)
(1.16929 -0.019011 1.34192e-20)
(1.17015 -0.0214101 3.19126e-20)
(1.17099 -0.0240397 -4.13484e-21)
(1.17181 -0.0269178 4.54302e-21)
(1.17261 -0.0300641 7.36682e-21)
(1.1734 -0.0335008 -3.37119e-22)
(1.17418 -0.0372515 0)
(1.17494 -0.0413439 1.6342e-20)
(1.17571 -0.0458092 -1.7057e-20)
(1.17649 -0.0506824 -1.46963e-20)
(1.17728 -0.0560043 0)
(1.17809 -0.0618234 0)
(1.17894 -0.0681941 9.64929e-21)
(1.1798 -0.0751804 0)
(1.18069 -0.0828606 1.03567e-20)
(1.18159 -0.09132 1.10236e-20)
(1.18246 -0.100663 -1.17061e-20)
(1.18325 -0.111006 0)
(1.18389 -0.122483 6.5463e-21)
(1.18431 -0.135255 -6.88443e-21)
(1.18437 -0.14951 7.85633e-21)
(1.18368 -0.165435 -1.71904e-20)
(1.18165 -0.183123 7.70117e-21)
(1.17782 -0.202611 -1.45394e-20)
(1.1725 -0.224163 1.23636e-20)
(1.1665 -0.248526 4.40686e-21)
(1.15982 -0.276639 5.20368e-21)
(1.15029 -0.308704 -9.75752e-21)
(1.13363 -0.343303 1.57238e-22)
(1.10465 -0.377363 -1.2839e-21)
(1.15184 -3.07491e-05 -4.49108e-23)
(1.15192 -1.84277e-05 4.38235e-21)
(1.15196 1.06705e-05 -2.85734e-23)
(1.152 4.40311e-05 8.30219e-26)
(1.15202 8.69586e-05 -8.80044e-26)
(1.15205 0.000130382 9.91199e-26)
(1.15206 0.000180003 -1.05062e-25)
(1.15208 0.000229902 3.78763e-21)
(1.1521 0.000283978 8.17561e-21)
(1.15212 0.00033853 -4.38495e-21)
(1.15214 0.000395984 1.42769e-25)
(1.15215 0.000454036 -9.99214e-21)
(1.15217 0.000514116 -2.64364e-21)
(1.15219 0.000574703 2.76091e-21)
(1.15222 0.00063655 -2.86351e-21)
(1.15224 0.000698592 -2.93312e-21)
(1.15227 0.000761044 2.95586e-21)
(1.1523 0.000823016 -2.91451e-21)
(1.15234 0.000884322 5.10129e-24)
(1.15238 0.000944057 3.35795e-25)
(1.15242 0.00100164 -2.23684e-25)
(1.15247 0.00105604 7.99461e-22)
(1.15253 0.00110631 0)
(1.1526 0.00115116 1.45711e-22)
(1.15267 0.00118928 0)
(1.15276 0.00121908 -1.14854e-24)
(1.15286 0.0012389 1.51809e-21)
(1.15297 0.00124682 -2.28751e-21)
(1.1531 0.00124082 -3.64771e-24)
(1.15324 0.0012187 3.8655e-24)
(1.15341 0.00117813 0)
(1.15359 0.00111661 -3.83989e-21)
(1.1538 0.00103154 4.76625e-24)
(1.15404 0.000920198 -1.33121e-23)
(1.1543 0.000779678 -1.89723e-23)
(1.1546 0.00060703 7.57435e-23)
(1.15493 0.000399062 -4.31171e-23)
(1.15529 0.000152508 0)
(1.1557 -0.000136227 0)
(1.15615 -0.000470871 -1.02853e-20)
(1.15663 -0.000855492 -1.24488e-20)
(1.15716 -0.0012945 -1.46358e-20)
(1.15774 -0.0017928 1.72976e-20)
(1.15835 -0.00235573 1.01737e-20)
(1.15901 -0.00298908 -1.16746e-20)
(1.15971 -0.00369939 1.93425e-23)
(1.16044 -0.00449366 2.1247e-23)
(1.1612 -0.00537973 1.80497e-20)
(1.162 -0.00636596 0)
(1.16281 -0.00746164 1.18309e-20)
(1.16364 -0.00867634 1.35943e-20)
(1.16448 -0.010021 1.61537e-20)
(1.16532 -0.0115063 -1.83686e-20)
(1.16616 -0.0131443 1.91281e-20)
(1.16699 -0.0149477 1.08662e-20)
(1.1678 -0.0169296 0)
(1.16858 -0.0191043 -2.80469e-22)
(1.16934 -0.0214869 -1.48406e-20)
(1.17006 -0.0240934 0)
(1.17075 -0.0269415 -1.74642e-20)
(1.1714 -0.0300501 -1.22788e-20)
(1.17201 -0.0334407 -8.11628e-21)
(1.17259 -0.0371358 1.12418e-20)
(1.17314 -0.0411631 3.13774e-21)
(1.17365 -0.0455496 6.97134e-21)
(1.17413 -0.0503327 1.82864e-20)
(1.17459 -0.0555472 -3.90118e-21)
(1.17502 -0.0612392 -1.61574e-20)
(1.17541 -0.0674597 1.294e-20)
(1.17576 -0.0742636 0)
(1.17606 -0.0817217 -1.04064e-20)
(1.17627 -0.0899076 -1.10852e-20)
(1.17635 -0.0989036 1.17821e-20)
(1.17623 -0.108812 1.11367e-20)
(1.17583 -0.119732 -1.27796e-20)
(1.17506 -0.131785 1.33891e-20)
(1.17377 -0.145106 0)
(1.17166 -0.159832 0)
(1.16818 -0.176008 -1.39401e-20)
(1.16284 -0.193617 -2.62365e-21)
(1.15559 -0.21271 -8.24725e-21)
(1.14697 -0.233666 -3.25016e-21)
(1.13727 -0.25711 -3.91256e-21)
(1.12553 -0.283313 -1.23533e-21)
(1.10913 -0.311559 -2.40102e-21)
(1.08446 -0.339896 -9.11293e-23)
(1.15184 -3.07661e-05 -4.17469e-21)
(1.15192 -1.8057e-05 -3.22116e-23)
(1.15196 1.15658e-05 -4.88546e-21)
(1.152 4.52717e-05 0)
(1.15202 8.85325e-05 -9.05437e-26)
(1.15205 0.000132229 6.36041e-21)
(1.15207 0.000182088 -1.07353e-25)
(1.15209 0.000232196 3.76155e-21)
(1.1521 0.000286453 -4.08119e-21)
(1.15212 0.000341167 4.38518e-21)
(1.15214 0.000398777 8.88778e-28)
(1.15216 0.000456981 9.9628e-21)
(1.15217 0.000517204 1.60874e-25)
(1.1522 0.000577961 -2.76063e-21)
(1.15222 0.000639986 5.71929e-21)
(1.15224 0.000702211 2.93224e-21)
(1.15227 0.000764879 -9.49146e-24)
(1.1523 0.000827093 2.91389e-21)
(1.15234 0.000888658 1.39376e-21)
(1.15238 0.000948685 1.26905e-21)
(1.15242 0.0010066 -1.07782e-21)
(1.15248 0.00106133 -7.99264e-22)
(1.15253 0.00111197 0)
(1.1526 0.00115718 -2.95206e-22)
(1.15268 0.00119567 4.36413e-22)
(1.15276 0.00122582 0)
(1.15286 0.00124593 0)
(1.15297 0.00125409 0)
(1.1531 0.00124824 3.64102e-24)
(1.15324 0.00122613 -8.75924e-24)
(1.1534 0.00118538 -1.2491e-24)
(1.15359 0.00112347 2.6163e-23)
(1.15379 0.00103771 4.92178e-21)
(1.15402 0.000925314 2.65318e-23)
(1.15429 0.000783355 -2.81088e-23)
(1.15458 0.000608777 -4.05366e-23)
(1.1549 0.000398331 -6.51333e-24)
(1.15526 0.00014867 -7.13977e-21)
(1.15566 -0.000143805 8.59616e-21)
(1.1561 -0.000482959 1.04468e-20)
(1.15658 -0.000872832 2.4533e-20)
(1.15709 -0.00131791 1.47431e-20)
(1.15765 -0.00182306 -8.61932e-21)
(1.15825 -0.00239345 0)
(1.15889 -0.003035 0)
(1.15957 -0.00375388 1.35407e-20)
(1.16027 -0.00455706 -1.58809e-20)
(1.16101 -0.00545212 -1.76768e-20)
(1.16177 -0.00644696 1.02612e-20)
(1.16254 -0.00755041 -1.47309e-22)
(1.16333 -0.0087719 -8.62631e-22)
(1.16412 -0.0101212 -2.91953e-20)
(1.16491 -0.011609 -1.67935e-20)
(1.16568 -0.0132463 -1.91254e-20)
(1.16644 -0.0150452 0)
(1.16716 -0.0170183 0)
(1.16786 -0.0191785 -2.60008e-20)
(1.16851 -0.0215404 0)
(1.16912 -0.0241192 1.5534e-20)
(1.16967 -0.0269319 4.90792e-22)
(1.17018 -0.0299959 2.38452e-21)
(1.17062 -0.033332 7.51606e-21)
(1.17101 -0.036962 -4.07677e-22)
(1.17134 -0.0409105 3.01301e-21)
(1.1716 -0.0452054 1.26025e-20)
(1.1718 -0.0498794 -1.6814e-20)
(1.17193 -0.0549649 -1.42945e-20)
(1.17199 -0.0605044 2.00467e-20)
(1.17196 -0.0665434 -1.27112e-20)
(1.17183 -0.0731289 8.46333e-21)
(1.17157 -0.0803223 0)
(1.17115 -0.0881846 9.2685e-21)
(1.17051 -0.0967831 5.05249e-21)
(1.16958 -0.106196 -1.6485e-20)
(1.16827 -0.116498 0)
(1.16647 -0.127775 0)
(1.16405 -0.140116 5.45652e-21)
(1.16076 -0.153614 -5.67962e-21)
(1.15613 -0.168277 1.5098e-21)
(1.14968 -0.184053 6.0208e-21)
(1.14118 -0.200884 2.00464e-21)
(1.13093 -0.218898 -2.07929e-21)
(1.11928 -0.238458 3.20285e-21)
(1.10593 -0.259798 1.79358e-21)
(1.08948 -0.28261 -1.73989e-22)
(1.06752 -0.305699 -1.96548e-21)
(1.15184 -3.07257e-05 3.12833e-26)
(1.15192 -1.7639e-05 -4.35096e-21)
(1.15196 1.24996e-05 0)
(1.152 4.65406e-05 8.22462e-26)
(1.15202 9.01302e-05 -5.81228e-21)
(1.15205 0.000134079 -6.36006e-21)
(1.15207 0.000184172 1.04258e-25)
(1.15209 0.000234458 -1.36152e-23)
(1.1521 0.000288884 2.4959e-25)
(1.15212 0.000343742 4.3556e-21)
(1.15214 0.000401492 4.66338e-21)
(1.15216 0.000459819 -9.93102e-21)
(1.15218 0.000520179 3.20737e-25)
(1.1522 0.000581066 -3.31724e-25)
(1.15222 0.000643239 -2.85395e-21)
(1.15225 0.000705629 -3.62329e-25)
(1.15227 0.000768483 -1.03221e-23)
(1.15231 0.000830893 2.89276e-21)
(1.15234 0.000892699 3.56149e-25)
(1.15238 0.000952974 -2.53208e-21)
(1.15243 0.00101116 4.83554e-24)
(1.15248 0.0010662 -7.8906e-22)
(1.15254 0.00111715 0)
(1.1526 0.00116268 1.49495e-22)
(1.15268 0.00120148 -4.36411e-22)
(1.15276 0.00123192 0)
(1.15286 0.00125229 0)
(1.15297 0.00126063 2.6149e-24)
(1.1531 0.00125486 -2.77106e-24)
(1.15324 0.0012327 0)
(1.1534 0.00119173 1.28467e-23)
(1.15358 0.00112937 3.82338e-21)
(1.15378 0.00104289 0)
(1.15401 0.000929434 -6.18311e-21)
(1.15427 0.00078602 0)
(1.15456 0.000609504 9.53546e-21)
(1.15488 0.000396634 0)
(1.15523 0.000143932 3.90844e-23)
(1.15562 -0.000152249 -8.67478e-21)
(1.15605 -0.000495722 1.03205e-20)
(1.15652 -0.000890751 -1.22771e-20)
(1.15702 -0.00134165 1.19661e-22)
(1.15757 -0.00185334 -2.67105e-22)
(1.15815 -0.00243095 1.48651e-22)
(1.15877 -0.00308014 1.15673e-20)
(1.15942 -0.00380717 -1.39766e-20)
(1.1601 -0.00461855 1.25493e-22)
(1.1608 -0.00552163 1.78968e-20)
(1.16153 -0.00652427 -1.03053e-20)
(1.16227 -0.00763439 -1.09769e-20)
(1.16301 -0.00886108 -1.21945e-20)
(1.16375 -0.0102137 1.40382e-20)
(1.16448 -0.0117021 2.83592e-22)
(1.16519 -0.0133367 0)
(1.16587 -0.0151285 1.32947e-21)
(1.16652 -0.0170895 -1.27777e-20)
(1.16712 -0.019232 1.28509e-20)
(1.16767 -0.0215692 0)
(1.16817 -0.0241157 -1.55288e-20)
(1.16859 -0.0268865 5.00717e-22)
(1.16895 -0.0298996 0)