/*--------------------------------*- C++ -*----------------------------------*\
  =========                 |
  \\      /  F ield         | OpenFOAM: The Open Source CFD Toolbox
   \\    /   O peration     | Website:  https://openfoam.org
    \\  /    A nd           | Version:  9
     \\/     M anipulation  |
\*---------------------------------------------------------------------------*/
FoamFile
{
    format      ascii;
    class       volScalarField;
    location    "1500";
    object      gammaInt;
}
// * * * * * * * * * * * * * * * * * * * * * * * * * * * * * * * * * * * * * //

dimensions      [0 0 0 0 0 0 0];

internalField   nonuniform List<scalar> 
13354
(
0.260052
0.289142
0.260647
0.230667
0.222619
0.233344
0.244772
0.262383
0.285889
0.333384
0.310085
0.115984
0.0602151
0.276074
0.251134
0.232401
0.214578
0.212141
0.222842
0.235264
0.246504
0.250687
0.266875
0.267364
0.285419
0.38165
0.332852
0.273086
0.234282
0.222103
0.219923
0.227445
0.23837
0.243475
0.231046
0.212226
0.244154
0.426526
0.54648
0.408278
0.354499
0.299691
0.258547
0.24169
0.238283
0.23678
0.227993
0.20584
0.190253
0.319696
0.526553
0.579104
0.460873
0.423469
0.378695
0.346147
0.316784
0.298352
0.288611
0.283403
0.2929
0.346341
0.525737
0.57745
0.58952
0.485146
0.473082
0.440388
0.433443
0.442446
0.452329
0.461774
0.482819
0.529187
0.603007
0.64773
0.608363
0.624546
0.483658
0.501159
0.475823
0.474382
0.518643
0.581084
0.629255
0.667903
0.71086
0.714025
0.674705
0.63308
0.639341
0.452477
0.508723
0.494125
0.479338
0.513633
0.578715
0.632451
0.658888
0.67696
0.667941
0.628899
0.601435
0.50086
0.416547
0.498532
0.505516
0.477297
0.475209
0.506058
0.528494
0.523044
0.506772
0.482942
0.445744
0.405118
0.354712
0.387329
0.462544
0.509297
0.484782
0.462325
0.462958
0.456922
0.427246
0.388866
0.352502
0.318723
0.298057
0.298683
0.37247
0.420561
0.503568
0.49623
0.47185
0.467324
0.458899
0.425584
0.383834
0.349443
0.323832
0.310587
0.3151
0.365591
0.393615
0.473097
0.49817
0.481161
0.484291
0.489623
0.465488
0.429857
0.402806
0.383837
0.372371
0.372291
0.368185
0.377933
0.413311
0.48217
0.486899
0.493691
0.510287
0.500932
0.473878
0.453297
0.440386
0.431707
0.429597
0.383232
0.374632
0.388874
0.443794
0.489322
0.488757
0.50569
0.516898
0.503804
0.48701
0.477908
0.474105
0.473804
0.408699
0.384646
0.379185
0.405749
0.500449
0.491521
0.482088
0.506912
0.517682
0.506941
0.498685
0.499059
0.503169
0.44272
0.403966
0.382717
0.381571
0.412331
0.485129
0.468264
0.482343
0.510346
0.514821
0.508745
0.510523
0.519134
0.483185
0.430991
0.396363
0.378846
0.385108
0.438366
0.46703
0.463353
0.486428
0.508046
0.511307
0.513196
0.524208
0.527663
0.464285
0.417201
0.387816
0.377937
0.405807
0.507173
0.472826
0.462239
0.488111
0.50551
0.510344
0.521368
0.573591
0.501951
0.443811
0.403344
0.381226
0.383153
0.428007
0.477134
0.453204
0.464156
0.490002
0.502659
0.513498
0.618349
0.541765
0.474555
0.423776
0.391508
0.378106
0.39172
0.450216
0.461186
0.448833
0.466668
0.488998
0.502376
0.659701
0.581461
0.507645
0.447833
0.406178
0.382893
0.378705
0.408413
0.481122
0.447652
0.443113
0.469113
0.488155
0.696406
0.619316
0.541426
0.474211
0.424065
0.392339
0.377882
0.384385
0.432064
0.451651
0.431828
0.445643
0.470079
0.727868
0.654206
0.574587
0.501723
0.444179
0.404805
0.3827
0.376632
0.396462
0.46134
0.43846
0.4249
0.448353
0.752892
0.684821
0.605933
0.529388
0.465657
0.419384
0.390598
0.377003
0.379461
0.41765
0.446162
0.415979
0.426268
0.771155
0.710403
0.634289
0.556173
0.487656
0.435387
0.400556
0.381031
0.374889
0.388607
0.437291
0.424888
0.40948
0.783029
0.730464
0.658906
0.581186
0.509482
0.452215
0.411884
0.38713
0.37548
0.376639
0.403704
0.43486
0.40504
0.789309
0.74447
0.67917
0.603618
0.530499
0.469296
0.424068
0.394546
0.378483
0.373097
0.383606
0.418324
0.41773
0.790973
0.752719
0.695101
0.623183
0.550298
0.486277
0.436788
0.402797
0.382794
0.373178
0.375089
0.391835
0.431757
0.788995
0.755977
0.706006
0.63961
0.568566
0.50308
0.449898
0.411619
0.387875
0.374924
0.372166
0.376992
0.416387
0.784257
0.755164
0.71196
0.652885
0.585029
0.51954
0.46342
0.421077
0.393474
0.377468
0.371663
0.370634
0.393347
0.777477
0.751173
0.713583
0.662081
0.59999
0.535938
0.477951
0.431581
0.399686
0.380503
0.372195
0.368292
0.379149
0.769208
0.744779
0.71167
0.667097
0.612177
0.552236
0.49413
0.443785
0.407068
0.384117
0.373222
0.367571
0.372039
0.759836
0.73661
0.706998
0.668385
0.620694
0.567358
0.511839
0.458395
0.416272
0.388631
0.374743
0.367512
0.368584
0.749631
0.727143
0.700232
0.666581
0.625498
0.579426
0.530465
0.476062
0.427945
0.394666
0.377063
0.36792
0.366795
0.738739
0.716724
0.691902
0.662318
0.62699
0.587763
0.546741
0.497804
0.443467
0.403
0.380381
0.368901
0.365856
0.749702
0.727273
0.705578
0.682409
0.656138
0.625707
0.5925
0.558973
0.518986
0.464391
0.414113
0.385046
0.370625
0.365565
0.919224
0.90697
0.891155
0.871107
0.846825
0.819419
0.790853
0.763375
0.738122
0.715299
0.693857
0.672038
0.648482
0.622166
0.594108
0.566902
0.536166
0.488677
0.429376
0.391977
0.373213
0.366035
0.908494
0.895273
0.878758
0.85842
0.834232
0.807104
0.778752
0.751273
0.725874
0.702852
0.681669
0.660999
0.639691
0.616821
0.593124
0.570997
0.548083
0.511029
0.451468
0.401622
0.376854
0.367401
0.896468
0.882349
0.865176
0.844545
0.820431
0.793601
0.765564
0.738269
0.712947
0.689953
0.669097
0.649448
0.63004
0.610053
0.590038
0.571947
0.55497
0.528225
0.476181
0.415152
0.382189
0.369483
0.88319
0.868238
0.850451
0.829548
0.805509
0.779001
0.751354
0.724405
0.699367
0.676622
0.6562
0.637508
0.619744
0.602183
0.585272
0.57041
0.557705
0.539374
0.498504
0.435518
0.389882
0.371979
0.868695
0.852967
0.834617
0.813479
0.789549
0.763401
0.736234
0.709774
0.685202
0.662901
0.643034
0.625282
0.608975
0.593475
0.579183
0.566945
0.557254
0.545053
0.515479
0.458671
0.400553
0.375469
0.853031
0.836574
0.817714
0.796388
0.772609
0.74689
0.72031
0.694487
0.670539
0.648853
0.629669
0.612862
0.597874
0.584148
0.572076
0.561993
0.554454
0.54643
0.526316
0.480109
0.417699
0.380969
0.851282
0.83626
0.819146
0.799831
0.778365
0.754786
0.729566
0.703683
0.678635
0.655469
0.634562
0.616186
0.600341
0.586558
0.574379
0.564199
0.555909
0.549974
0.544681
0.531608
0.496928
0.438464
0.389074
0.834183
0.818438
0.800776
0.781106
0.759555
0.736229
0.711566
0.686461
0.662303
0.640072
0.620112
0.602666
0.5878
0.575129
0.564315
0.555754
0.548986
0.5443
0.540753
0.532559
0.508129
0.458784
0.403004
0.816062
0.799628
0.78153
0.761649
0.740121
0.717117
0.693078
0.668797
0.645618
0.624456
0.605584
0.589175
0.575306
0.563674
0.554082
0.546922
0.541451
0.537769
0.535383
0.530441
0.513976
0.47563
0.42154
0.796976
0.779909
0.761455
0.74151
0.720166
0.697607
0.674265
0.65087
0.628745
0.60875
0.591065
0.575769
0.562919
0.55227
0.543782
0.537858
0.53351
0.530687
0.529135
0.526196
0.51547
0.487697
0.44096
0.776936
0.759344
0.740593
0.720699
0.699726
0.67778
0.65525
0.632849
0.611863
0.593095
0.576646
0.56251
0.550691
0.540974
0.533516
0.528714
0.52534
0.523275
0.522274
0.520576
0.513941
0.494907
0.45807
0.756001
0.737941
0.718969
0.699222
0.678787
0.657649
0.636101
0.614848
0.595115
0.577615
0.562422
0.549463
0.53866
0.529837
0.523395
0.519577
0.517025
0.515575
0.51502
0.514279
0.510413
0.497848
0.471282
0.734342
0.715724
0.696608
0.677101
0.65734
0.6372
0.616841
0.596917
0.578578
0.562409
0.548481
0.536682
0.526865
0.518928
0.513457
0.510476
0.508633
0.507751
0.507716
0.50766
0.505483
0.497848
0.480523
0.712133
0.692922
0.673546
0.654369
0.635411
0.616445
0.59748
0.579064
0.562267
0.547539
0.534893
0.524214
0.515345
0.508306
0.503739
0.501549
0.500353
0.500049
0.500472
0.500809
0.500056
0.496353
0.485752
0.68954
0.669769
0.650066
0.631143
0.613076
0.595433
0.57803
0.56128
0.546185
0.533041
0.5217
0.512088
0.504169
0.49803
0.494372
0.492954
0.492317
0.492503
0.493274
0.494275
0.49504
0.493776
0.486958
0.666731
0.646489
0.626456
0.607619
0.590454
0.574245
0.558526
0.543585
0.530369
0.518932
0.508916
0.500372
0.493424
0.488127
0.48538
0.484641
0.484585
0.485312
0.486697
0.48866
0.490229
0.489386
0.483131
0.643871
0.623277
0.603005
0.584183
0.567743
0.553002
0.539045
0.52606
0.514883
0.505224
0.496582
0.489136
0.483107
0.478577
0.476818
0.476752
0.47759
0.479107
0.481339
0.483433
0.484262
0.48128
0.474485
0.621121
0.600303
0.579952
0.561185
0.545288
0.531887
0.519748
0.508858
0.499793
0.491938
0.484724
0.478408
0.473194
0.469695
0.468971
0.469873
0.471398
0.473816
0.475925
0.477074
0.47504
0.469629
0.459248
0.59862
0.577723
0.557497
0.538936
0.523466
0.511145
0.500863
0.492148
0.485173
0.479083
0.473359
0.468206
0.464001
0.461758
0.462175
0.463747
0.465702
0.46786
0.469418
0.467857
0.462679
0.452503
0.437974
0.576496
0.555691
0.535818
0.517652
0.5025
0.491055
0.482637
0.476058
0.471058
0.466726
0.462587
0.458664
0.45574
0.454715
0.456266
0.45823
0.460008
0.461188
0.460448
0.455538
0.444946
0.430674
0.414978
0.554859
0.534358
0.515054
0.497445
0.482647
0.472037
0.465248
0.460641
0.457519
0.455046
0.452528
0.450013
0.448431
0.448671
0.45127
0.453225
0.453846
0.452214
0.447205
0.436859
0.422965
0.408805
0.400001
0.533826
0.513856
0.495295
0.478407
0.464202
0.454315
0.448804
0.445958
0.444754
0.444266
0.443498
0.442658
0.442526
0.443758
0.446449
0.447028
0.444252
0.437914
0.427432
0.414368
0.402776
0.394899
0.3897
0.534291
0.513536
0.494286
0.476605
0.460671
0.447421
0.438273
0.433436
0.432196
0.433163
0.434861
0.436045
0.437081
0.437367
0.438853
0.438979
0.436521
0.428464
0.418067
0.405391
0.396417
0.389882
0.385149
0.380227
0.5142
0.494086
0.475712
0.459089
0.444417
0.432467
0.424151
0.419713
0.419822
0.423338
0.427368
0.430644
0.431907
0.432168
0.431166
0.428308
0.420178
0.40966
0.397399
0.390218
0.384798
0.38073
0.376023
0.370738
0.515526
0.494787
0.475518
0.458204
0.442909
0.429801
0.41935
0.411905
0.407793
0.409463
0.415704
0.422121
0.425837
0.426294
0.425
0.420655
0.412921
0.402337
0.391776
0.384864
0.379932
0.376379
0.371909
0.366901
0.356523
0.495997
0.475999
0.457854
0.441876
0.428222
0.416848
0.407935
0.401372
0.39786
0.401603
0.410443
0.417708
0.420461
0.419158
0.413884
0.405954
0.395068
0.386898
0.380677
0.375737
0.372405
0.367873
0.363515
0.353125
0.342525
0.476896
0.457847
0.44115
0.426865
0.415061
0.405449
0.398057
0.392482
0.390324
0.396431
0.406476
0.412797
0.413408
0.407751
0.398771
0.389
0.38227
0.376901
0.372448
0.368489
0.364226
0.359199
0.349628
0.339521
0.331103
0.45827
0.440413
0.42552
0.413238
0.403291
0.395451
0.389629
0.385265
0.385277
0.393258
0.402581
0.406289
0.402335
0.393147
0.384572
0.378339
0.373415
0.369138
0.364957
0.360368
0.354339
0.345463
0.336309
0.32857
0.32286
0.440175
0.423793
0.411052
0.400865
0.392716
0.386813
0.382703
0.379732
0.381887
0.390773
0.397264
0.396385
0.388869
0.381133
0.375306
0.370185
0.365967
0.361422
0.356615
0.349805
0.341092
0.332734
0.325818
0.320816
0.317588
0.42264
0.408088
0.397706
0.389466
0.383316
0.379684
0.377384
0.375817
0.379346
0.386753
0.38923
0.38443
0.378414
0.372812
0.367257
0.36298
0.357874
0.353107
0.345523
0.336889
0.329123
0.323068
0.318759
0.316111
0.314837
0.405653
0.393299
0.38521
0.378851
0.375369
0.374271
0.373661
0.373216
0.376593
0.38082
0.379849
0.375869
0.370714
0.365084
0.360227
0.354859
0.349983
0.341424
0.332932
0.325769
0.320469
0.316963
0.314839
0.314025
0.314499
0.38925
0.379239
0.373188
0.3693
0.369353
0.370622
0.371245
0.371428
0.373419
0.375034
0.373187
0.368875
0.363481
0.357818
0.352276
0.34781
0.337706
0.329217
0.322757
0.318193
0.315375
0.313994
0.313744
0.31451
0.316398
0.373515
0.365671
0.361659
0.361628
0.365522
0.368425
0.3696
0.369867
0.370497
0.370099
0.366974
0.361752
0.355634
0.34966
0.342772
0.334701
0.325832
0.319973
0.316295
0.314218
0.313525
0.313903
0.315144
0.317249
0.320595
0.358604
0.35252
0.351313
0.356604
0.363554
0.366986
0.36793
0.367733
0.366856
0.364497
0.360034
0.353509
0.346996
0.3388
0.330264
0.323184
0.317519
0.314703
0.31356
0.313522
0.314468
0.316211
0.318834
0.322285
0.326812
0.344624
0.340081
0.343208
0.35409
0.362458
0.365389
0.36541
0.364382
0.361758
0.357755
0.351509
0.344644
0.335154
0.326647
0.320191
0.315889
0.313545
0.313262
0.313993
0.31548
0.317871
0.320901
0.324529
0.329192
0.335162
0.33193
0.329041
0.337897
0.353021
0.36109
0.362772
0.361521
0.359182
0.354746
0.349238
0.341619
0.33217
0.32361
0.317907
0.314678
0.313151
0.313327
0.314924
0.31719
0.31998
0.323341
0.32743
0.332178
0.337779
0.344492
0.320916
0.320102
0.334925
0.351761
0.358372
0.358513
0.356034
0.351828
0.345917
0.338433
0.329428
0.321513
0.316291
0.313976
0.313456
0.314244
0.316386
0.319364
0.3226
0.326467
0.330862
0.335663
0.340828
0.346851
0.354093
0.312256
0.31343
0.332809
0.349036
0.35354
0.352038
0.349069
0.342528
0.334908
0.326964
0.320069
0.315582
0.313949
0.314564
0.316169
0.318508
0.321909
0.32603
0.330305
0.334721
0.339411
0.344437
0.349851
0.35544
0.361902
0.305912
0.308691
0.329713
0.343771
0.346145
0.343456
0.340152
0.331168
0.324094
0.318896
0.315754
0.314914
0.316171
0.318708
0.321842
0.325514
0.329964
0.334448
0.339
0.343603
0.348373
0.352745
0.357166
0.361748
0.367178
0.301564
0.304937
0.324613
0.335777
0.336332
0.333734
0.329293
0.320214
0.316685
0.31591
0.316503
0.318529
0.322025
0.326122
0.330109
0.334305
0.339047
0.343648
0.348044
0.351842
0.355482
0.358744
0.362052
0.36565
0.370089
0.298745
0.300945
0.316889
0.325074
0.325276
0.325121
0.318133
0.312253
0.313806
0.317657
0.321488
0.325757
0.330432
0.335182
0.339618
0.344147
0.348275
0.351846
0.355025
0.35768
0.36016
0.362441
0.36483
0.367574
0.371075
0.297039
0.298212
0.308186
0.313677
0.315009
0.318963
0.309557
0.308192
0.315086
0.323061
0.329136
0.334773
0.34017
0.344865
0.348671
0.352176
0.35511
0.357511
0.359561
0.361277
0.362875
0.3644
0.36606
0.368056
0.370668
0.296099
0.296627
0.299943
0.303525
0.307497
0.312564
0.304956
0.307496
0.319097
0.330138
0.337767
0.343631
0.348408
0.35214
0.354981
0.357423
0.35938
0.360919
0.362187
0.363249
0.364231
0.365192
0.36627
0.367615
0.369418
0.295636
0.295874
0.296993
0.298945
0.303606
0.307764
0.303206
0.308756
0.323779
0.336475
0.344286
0.349647
0.353595
0.356476
0.358597
0.360333
0.361676
0.362688
0.363482
0.364126
0.3647
0.365255
0.365881
0.366689
0.367806
0.295431
0.295556
0.295958
0.29715
0.301341
0.304961
0.303064
0.310461
0.327048
0.339966
0.347599
0.352544
0.355983
0.358387
0.360136
0.361514
0.362551
0.363297
0.363842
0.364257
0.36459
0.364878
0.365182
0.365583
0.36617
0.295349
0.295429
0.295592
0.296383
0.299825
0.303352
0.303577
0.31153
0.327807
0.340338
0.347938
0.352828
0.356124
0.358414
0.360083
0.361385
0.362344
0.363017
0.363494
0.363832
0.364065
0.364215
0.364327
0.364461
0.364684
0.295319
0.295378
0.295457
0.296001
0.29866
0.302225
0.304
0.311724
0.326123
0.338046
0.345829
0.35095
0.354445
0.35688
0.358715
0.360143
0.3612
0.361964
0.362518
0.362913
0.36317
0.363308
0.363354
0.363359
0.363377
0.295312
0.295356
0.295401
0.295766
0.297689
0.300977
0.303793
0.310824
0.322779
0.333743
0.341682
0.347276
0.351134
0.35394
0.356102
0.357807
0.359115
0.360109
0.360875
0.361452
0.36186
0.362107
0.362212
0.362216
0.36217
0.295319
0.295345
0.295372
0.295595
0.296843
0.299279
0.302394
0.309149
0.31824
0.327991
0.336007
0.341938
0.346309
0.349587
0.352201
0.354298
0.355974
0.357332
0.358435
0.359325
0.360009
0.360492
0.360778
0.360904
0.360927
0.295338
0.29534
0.295355
0.295469
0.29618
0.297724
0.300152
0.305267
0.312887
0.321384
0.32901
0.335294
0.340053
0.343858
0.346952
0.349502
0.35165
0.353463
0.35502
0.356349
0.357444
0.358282
0.358877
0.359259
0.359477
0.29537
0.29534
0.295346
0.295389
0.295734
0.296576
0.29811
0.301407
0.306801
0.313901
0.321462
0.327506
0.332666
0.336885
0.340402
0.343426
0.346023
0.348343
0.350439
0.352321
0.353927
0.355257
0.356309
0.357076
0.357618
0.295421
0.295345
0.295342
0.295348
0.295484
0.295878
0.296697
0.298537
0.301827
0.306712
0.312883
0.319091
0.32446
0.329027
0.332903
0.336178
0.339156
0.341917
0.34457
0.347008
0.34923
0.351189
0.352812
0.354104
0.355114
0.295506
0.295356
0.295344
0.295334
0.295371
0.295526
0.295903
0.2968
0.298549
0.30144
0.305541
0.310493
0.315969
0.320901
0.324847
0.328328
0.331392
0.334451
0.337404
0.340354
0.343206
0.345809
0.348115
0.350069
0.351672
0.29564
0.295378
0.295351
0.295335
0.295333
0.295381
0.295531
0.295918
0.296735
0.298227
0.300586
0.303852
0.308019
0.312693
0.317105
0.320459
0.323586
0.326373
0.32936
0.332575
0.335819
0.339029
0.342025
0.344681
0.347016
0.295839
0.295419
0.295363
0.295343
0.295329
0.295337
0.295388
0.295536
0.295875
0.296554
0.297741
0.299592
0.302257
0.305682
0.309542
0.313363
0.316038
0.318511
0.321213
0.324191
0.327572
0.33106
0.334507
0.337852
0.340944
0.296137
0.295488
0.295382
0.295356
0.29534
0.295335
0.295349
0.295399
0.295525
0.2958
0.296328
0.297242
0.298709
0.300824
0.30351
0.30651
0.309297
0.311632
0.313857
0.316493
0.319303
0.32251
0.326137
0.329822
0.333435
0.296591
0.295604
0.295418
0.295375
0.295357
0.295349
0.295351
0.295366
0.295408
0.295509
0.295718
0.296116
0.296821
0.29795
0.299528
0.301459
0.303548
0.305787
0.308314
0.309972
0.312126
0.314923
0.317875
0.321279
0.325093
0.297256
0.295784
0.295468
0.295394
0.29537
0.295362
0.295362
0.295367
0.295381
0.295416
0.295491
0.295642
0.295941
0.29647
0.297276
0.298339
0.299609
0.301126
0.302936
0.304721
0.306932
0.30867
0.310819
0.313719
0.316956
0.298304
0.296152
0.295609
0.295465
0.295419
0.295403
0.295397
0.295395
0.2954
0.295413
0.295439
0.295491
0.295605
0.29583
0.296199
0.296712
0.297368
0.298207
0.299255
0.300455
0.301999
0.303728
0.306205
0.307726
0.310056
0.299511
0.296536
0.295676
0.295433
0.295365
0.295346
0.295346
0.295355
0.295367
0.29538
0.295388
0.295397
0.295431
0.295514
0.295664
0.295884
0.296178
0.296571
0.297079
0.297708
0.298541
0.299589
0.301069
0.302628
0.304948
0.302186
0.29793
0.296484
0.295997
0.295822
0.295753
0.295713
0.295688
0.295671
0.295666
0.295669
0.295676
0.295699
0.295749
0.295831
0.295934
0.296062
0.29623
0.296443
0.296717
0.297088
0.297603
0.298368
0.299378
0.300946
0.303666
0.297879
0.295548
0.294729
0.294486
0.294462
0.294533
0.294636
0.294751
0.294866
0.294953
0.295012
0.295073
0.295152
0.29525
0.295362
0.295487
0.295605
0.295735
0.295875
0.296038
0.296245
0.296508
0.296879
0.29743
0.306252
0.303326
0.301486
0.30023
0.299282
0.29856
0.297994
0.297527
0.297145
0.296841
0.296603
0.296404
0.29621
0.296018
0.29584
0.295683
0.295552
0.295448
0.295378
0.295339
0.295334
0.295362
0.295419
0.295533
0.295892
0.970967
0.991689
0.997632
0.997519
0.997514
0.997553
0.997324
0.996964
0.996569
0.996133
0.995642
0.995084
0.994443
0.993701
0.992835
0.991821
0.990628
0.989219
0.987552
0.985573
0.98322
0.980417
0.977078
0.973108
0.9684
0.962836
0.956292
0.948643
0.939767
0.929548
0.917888
0.904708
0.889953
0.873602
0.855661
0.836175
0.815224
0.79292
0.769414
0.744878
0.719517
0.693554
0.667231
0.640802
0.614519
0.588631
0.563385
0.53901
0.515717
0.493695
0.473097
0.454048
0.436631
0.420891
0.406829
0.394435
0.383657
0.37443
0.366661
0.360224
0.354966
0.350707
0.34726
0.344445
0.342122
0.340218
0.338709
0.337573
0.336743
0.336134
0.335692
0.335409
0.335256
0.335187
0.335165
0.335104
0.334889
0.334454
0.333787
0.332924
0.33172
0.32991
0.32736
0.324365
0.321437
0.318723
0.316339
0.314199
0.31213
0.310052
0.308172
0.306318
0.304684
0.303405
0.302008
0.300978
0.299737
0.298269
0.297152
0.969414
0.988725
0.997033
0.997746
0.997669
0.997782
0.997676
0.997386
0.997067
0.996725
0.996355
0.995955
0.995516
0.995034
0.9945
0.993907
0.993246
0.992506
0.991676
0.990743
0.989694
0.988512
0.987178
0.985669
0.983957
0.982011
0.979792
0.977253
0.974337
0.970977
0.967097
0.96261
0.957418
0.951419
0.944501
0.936542
0.927423
0.917022
0.905228
0.891936
0.877059
0.860535
0.84233
0.822463
0.800981
0.777988
0.753623
0.728093
0.701629
0.674529
0.647096
0.619668
0.592605
0.566237
0.540838
0.516672
0.493921
0.472728
0.453203
0.435393
0.419312
0.404916
0.392165
0.380984
0.371244
0.362849
0.355668
0.349582
0.344462
0.340196
0.336652
0.333969
0.332148
0.331092
0.330972
0.332189
0.334528
0.337552
0.34113
0.345147
0.349336
0.353281
0.355533
0.354824
0.351383
0.34676
0.34221
0.337775
0.333685
0.329324
0.324859
0.320386
0.316035
0.3134
0.307676
0.303429
0.300714
0.299219
0.298138
0.969323
0.988157
0.996637
0.997732
0.997684
0.997797
0.997746
0.997488
0.997194
0.996873
0.996527
0.99615
0.995738
0.995284
0.994781
0.99422
0.993592
0.992885
0.992085
0.991177
0.990142
0.988959
0.987605
0.98605
0.984263
0.982204
0.979828
0.977083
0.973913
0.970253
0.966031
0.961169
0.955583
0.949191
0.941906
0.933637
0.924286
0.913764
0.901983
0.888861
0.874326
0.858317
0.840797
0.821764
0.801257
0.779346
0.756134
0.731784
0.706497
0.680511
0.654104
0.627605
0.601342
0.575646
0.550823
0.527119
0.50474
0.48384
0.464554
0.446961
0.431062
0.416811
0.404149
0.392982
0.383138
0.374479
0.366889
0.360278
0.354555
0.349618
0.345424
0.341987
0.339155
0.336715
0.334728
0.333576
0.33346
0.334208
0.335738
0.338017
0.340872
0.344052
0.34705
0.34887
0.34918
0.34845
0.347084
0.345193
0.342378
0.338931
0.334667
0.329861
0.324847
0.319721
0.315069
0.310955
0.307561
0.305407
0.302944
0.969652
0.987635
0.996341
0.997752
0.997728
0.997846
0.997872
0.997663
0.997407
0.997126
0.996822
0.996494
0.996138
0.995748
0.99532
0.994846
0.994318
0.993729
0.993066
0.992317
0.991468
0.9905
0.989392
0.988121
0.986662
0.984983
0.983044
0.9808
0.9782
0.975185
0.971688
0.967634
0.962937
0.957509
0.951263
0.944101
0.935916
0.926606
0.916069
0.904208
0.890934
0.876169
0.859851
0.841958
0.822511
0.801557
0.779184
0.755536
0.730806
0.705224
0.679055
0.652631
0.62629
0.600362
0.575158
0.550954
0.527961
0.506365
0.486332
0.467942
0.451211
0.436106
0.42256
0.410476
0.399741
0.390226
0.381798
0.374336
0.367739
0.361931
0.356854
0.352489
0.348846
0.345761
0.343123
0.341114
0.339951
0.339563
0.33986
0.340831
0.342424
0.344554
0.346812
0.348389
0.348694
0.348076
0.347091
0.345929
0.344305
0.341928
0.338766
0.334984
0.330732
0.326144
0.321636
0.317415
0.313433
0.310047
0.307314
0.970319
0.987512
0.996144
0.997751
0.997761
0.997866
0.997936
0.99776
0.997529
0.997269
0.996988
0.996686
0.99636
0.996004
0.995615
0.995186
0.994711
0.99418
0.993585
0.992914
0.992152
0.991284
0.990288
0.989143
0.987823
0.986301
0.984537
0.982489
0.980107
0.977335
0.97411
0.970358
0.965999
0.960947
0.955117
0.948417
0.940743
0.931996
0.922079
0.910893
0.898353
0.884376
0.868897
0.851885
0.833348
0.813317
0.791863
0.769113
0.745241
0.720455
0.695007
0.669214
0.643397
0.617873
0.592946
0.568905
0.545987
0.524393
0.504266
0.485679
0.468659
0.453185
0.4392
0.426611
0.415305
0.405157
0.39603
0.387791
0.380325
0.373553
0.367424
0.361919
0.357071
0.352817
0.349098
0.346042
0.343891
0.342624
0.342144
0.342396
0.343319
0.344854
0.34677
0.348486
0.349378
0.349482
0.349202
0.348809
0.348098
0.346735
0.344658
0.341886
0.338441
0.334511
0.330206
0.325651
0.321221
0.317093
0.313229
0.971181
0.987565
0.996035
0.997756
0.997794
0.997887
0.997991
0.997847
0.997637
0.997398
0.99714
0.996862
0.996564
0.99624
0.995886
0.995497
0.995066
0.994587
0.994049
0.993442
0.992754
0.991968
0.991066
0.990028
0.988829
0.987441
0.985832
0.983958
0.981776
0.979231
0.976262
0.972803
0.968777
0.964102
0.958696
0.952469
0.945324
0.937164
0.927894
0.917417
0.905646
0.892498
0.877905
0.861828
0.844259
0.825217
0.804759
0.782995
0.76008
0.736213
0.711646
0.686658
0.661545
0.636614
0.61217
0.588492
0.565826
0.544371
0.524278
0.50563
0.488471
0.472784
0.458519
0.445578
0.433849
0.423198
0.41349
0.404591
0.39638
0.388759
0.381682
0.375126
0.369116
0.363637
0.358626
0.354172
0.350558
0.347878
0.346086
0.345138
0.344985
0.345583
0.346779
0.34816
0.349141
0.349542
0.349627
0.34969
0.349601
0.349067
0.347961
0.34624
0.343931
0.341034
0.337564
0.333685
0.329507
0.32512
0.320675
0.972178
0.987751
0.995991
0.997765
0.997827
0.997908
0.998031
0.997912
0.99772
0.997497
0.997257
0.996999
0.996722
0.996423
0.996096
0.995738
0.995343
0.994903
0.99441
0.993854
0.993223
0.992503
0.991676
0.990722
0.989619
0.98834
0.986854
0.985122
0.983101
0.98074
0.977983
0.974767
0.97102
0.966666
0.961623
0.955808
0.949129
0.941492
0.932806
0.922979
0.911922
0.899557
0.885815
0.870654
0.854049
0.836007
0.816579
0.795854
0.773968
0.751103
0.727487
0.703382
0.679068
0.654848
0.631016
0.607845
0.585582
0.56443
0.544542
0.526016
0.508899
0.493178
0.478805
0.465685
0.4537
0.442707
0.432563
0.423131
0.414275
0.40589
0.397919
0.390337
0.383177
0.376471
0.370177
0.364345
0.359242
0.355065
0.35184
0.349551
0.34817
0.347661
0.347931
0.348695
0.349464
0.34992
0.350171
0.350457
0.350742
0.350757
0.350341
0.349465
0.34809
0.346166
0.343714
0.340729
0.337228
0.333349
0.3291
0.973263
0.988015
0.995996
0.997779
0.997858
0.997932
0.998063
0.997965
0.997788
0.997579
0.997354
0.997113
0.996855
0.996577
0.996274
0.995943
0.995577
0.995171
0.994716
0.994203
0.993621
0.992956
0.992192
0.99131
0.99029
0.989106
0.987728
0.98612
0.984241
0.982046
0.979479
0.976483
0.972992
0.968934
0.964233
0.958808
0.952572
0.945438
0.937317
0.928121
0.917763
0.906164
0.893255
0.878987
0.863331
0.846287
0.827893
0.808224
0.787399
0.765581
0.742981
0.719843
0.696435
0.673044
0.649956
0.627443
0.605746
0.585068
0.565573
0.547363
0.530487
0.514937
0.500665
0.487573
0.475533
0.464394
0.454
0.444203
0.434853
0.425829
0.417061
0.408504
0.400194
0.392204
0.384538
0.377221
0.370478
0.364586
0.359668
0.355776
0.352917
0.351073
0.350189
0.350066
0.350314
0.350559
0.35076
0.351073
0.351514
0.351849
0.351914
0.351648
0.350998
0.349926
0.348376
0.346302
0.343736
0.340696
0.337044
0.974398
0.988331
0.996036
0.997798
0.997888
0.997957
0.99809
0.998008
0.997843
0.997647
0.997435
0.997209
0.996967
0.996707
0.996424
0.996116
0.995776
0.995399
0.994977
0.994501
0.993961
0.993345
0.992636
0.991819
0.990873
0.989774
0.988493
0.986999
0.985252
0.983209
0.98082
0.97803
0.974777
0.970995
0.966611
0.961551
0.955732
0.949072
0.941487
0.93289
0.923197
0.912334
0.900227
0.886827
0.872101
0.856042
0.838675
0.820067
0.80032
0.779584
0.758049
0.735946
0.713526
0.691063
0.668836
0.647111
0.626124
0.606086
0.587159
0.56945
0.55301
0.537836
0.523874
0.51102
0.499139
0.488059
0.477611
0.467632
0.457954
0.448444
0.439022
0.429604
0.42022
0.410973
0.401923
0.393092
0.38465
0.376901
0.370072
0.364308
0.359684
0.356222
0.353912
0.352615
0.352027
0.351774
0.351693
0.35183
0.352216
0.352661
0.352987
0.353113
0.352991
0.352549
0.351718
0.350461
0.348749
0.346564
0.343797
0.975529
0.988702
0.996101
0.99782
0.997916
0.997982
0.998113
0.998045
0.99789
0.997705
0.997504
0.99729
0.997062
0.996818
0.996554
0.996266
0.995949
0.995597
0.995205
0.994763
0.994262
0.993689
0.993031
0.992272
0.991393
0.990372
0.989181
0.987791
0.986165
0.984263
0.982039
0.97944
0.976409
0.972885
0.968801
0.964084
0.95866
0.952448
0.94537
0.937343
0.928286
0.918126
0.906792
0.894232
0.880411
0.865316
0.848964
0.831413
0.812752
0.793119
0.772689
0.751677
0.730319
0.708878
0.687621
0.66681
0.646681
0.627441
0.609258
0.59224
0.576441
0.561856
0.548425
0.536034
0.524536
0.513738
0.50345
0.493493
0.483669
0.473837
0.463917
0.453775
0.443425
0.43298
0.422561
0.412217
0.402064
0.392386
0.383484
0.37561
0.368927
0.363531
0.359477
0.356687
0.35493
0.353861
0.353233
0.35298
0.353111
0.353464
0.353851
0.35418
0.354376
0.354361
0.35407
0.353434
0.352414
0.351015
0.349107
0.976626
0.989122
0.99619
0.99784
0.99794
0.998007
0.998135
0.998076
0.99793
0.997754
0.997563
0.997361
0.997146
0.996916
0.996668
0.996398
0.996101
0.995773
0.995408
0.994996
0.99453
0.993998
0.993386
0.992681
0.991864
0.990914
0.989806
0.988513
0.987
0.985229
0.983158
0.980738
0.977916
0.974634
0.97083
0.966437
0.961384
0.955595
0.948996
0.941509
0.933057
0.923568
0.912974
0.901223
0.888279
0.874122
0.858769
0.842265
0.824691
0.806173
0.786873
0.766994
0.746761
0.726421
0.706235
0.686457
0.667322
0.649035
0.631767
0.615625
0.600668
0.586883
0.574203
0.562498
0.551608
0.541311
0.531397
0.521666
0.511886
0.501907
0.491657
0.480953
0.469785
0.458261
0.446545
0.434733
0.422915
0.411318
0.400275
0.390123
0.381131
0.37349
0.367346
0.362702
0.359405
0.357162
0.355676
0.354785
0.354443
0.354498
0.354756
0.355097
0.35543
0.355668
0.355725
0.355528
0.355042
0.354254
0.353048
0.977691
0.989566
0.996293
0.997861
0.997961
0.998032
0.998155
0.998104
0.997965
0.997796
0.997615
0.997423
0.997219
0.997002
0.996769
0.996515
0.996238
0.995931
0.99559
0.995207
0.994773
0.994278
0.993709
0.993053
0.992293
0.991409
0.990379
0.989175
0.987767
0.986119
0.984191
0.981938
0.979312
0.976257
0.972716
0.968626
0.963922
0.958532
0.952385
0.945409
0.93753
0.92868
0.918793
0.907818
0.895718
0.882473
0.868095
0.852622
0.836129
0.81873
0.800578
0.781865
0.762805
0.743635
0.72461
0.705973
0.687957
0.670768
0.654578
0.639494
0.62557
0.612788
0.60107
0.590265
0.580194
0.570605
0.561262
0.551943
0.542381
0.532418
0.521999
0.510888
0.499067
0.486634
0.473762
0.460597
0.447222
0.433804
0.420662
0.408182
0.396725
0.386591
0.378032
0.371163
0.365925
0.362102
0.359391
0.35756
0.356491
0.356021
0.355944
0.356112
0.35641
0.356727
0.356965
0.357047
0.356922
0.356572
0.355923
0.978716
0.990017
0.996404
0.997883
0.997981
0.998056
0.998174
0.998128
0.997995
0.997834
0.99766
0.997478
0.997285
0.99708
0.99686
0.996622
0.996361
0.996075
0.995756
0.995399
0.994994
0.994533
0.994004
0.993394
0.992687
0.991865
0.990907
0.989787
0.988477
0.986943
0.985149
0.983052
0.980608
0.977766
0.974471
0.970667
0.966289
0.961274
0.955553
0.949059
0.941722
0.933477
0.924262
0.914029
0.902741
0.890377
0.876947
0.862484
0.847059
0.830776
0.813783
0.796258
0.778409
0.760464
0.742673
0.725271
0.70849
0.692533
0.677569
0.663706
0.650993
0.639401
0.628834
0.619117
0.610047
0.601335
0.592714
0.583952
0.574737
0.564911
0.554459
0.543071
0.530755
0.517609
0.503792
0.489472
0.474735
0.459694
0.444624
0.429912
0.415984
0.403234
0.392022
0.382595
0.375022
0.369186
0.364834
0.361699
0.359594
0.35833
0.357683
0.357473
0.357551
0.357779
0.358043
0.358247
0.35833
0.358275
0.358014
0.979699
0.990468
0.99652
0.997904
0.998
0.99808
0.998193
0.99815
0.998022
0.997867
0.997701
0.997527
0.997344
0.99715
0.996942
0.996718
0.996474
0.996206
0.995908
0.995575
0.995198
0.994769