/*--------------------------------*- C++ -*----------------------------------*\
  =========                 |
  \\      /  F ield         | OpenFOAM: The Open Source CFD Toolbox
   \\    /   O peration     | Website:  https://openfoam.org
    \\  /    A nd           | Version:  9
     \\/     M anipulation  |
\*---------------------------------------------------------------------------*/
FoamFile
{
    format      ascii;
    class       volScalarField;
    location    "1500";
    object      k;
}
// * * * * * * * * * * * * * * * * * * * * * * * * * * * * * * * * * * * * * //

dimensions      [0 2 -2 0 0 0 0];

internalField   nonuniform List<scalar> 
13354
(
0.000149756
0.000161476
0.000169492
0.000179726
0.000194532
0.000216323
0.000256644
0.000316323
0.000366662
0.000372878
0.000313887
0.000241135
0.000158408
0.000143158
0.000158258
0.000169544
0.000181055
0.000196775
0.000222029
0.000272473
0.000362893
0.000450239
0.00043973
0.000328657
0.000224242
0.00015766
0.000139403
0.000154175
0.000164394
0.000176607
0.000191729
0.00021762
0.000272956
0.000386785
0.000527701
0.000571755
0.000460066
0.000326325
0.000235481
0.000138581
0.000152252
0.000160051
0.000170943
0.000184497
0.000207949
0.000260542
0.00037894
0.000562204
0.000689323
0.000646312
0.000499996
0.000343533
0.00013738
0.000147339
0.000155131
0.000164818
0.000176351
0.000193928
0.000235116
0.000338916
0.000534031
0.00074337
0.000801066
0.000668975
0.000431027
0.000135297
0.000142546
0.000151078
0.000159778
0.000169051
0.000179749
0.000205143
0.000283227
0.000469267
0.000727703
0.00087529
0.000770436
0.000479983
0.000131899
0.000137923
0.000146805
0.000154369
0.000162044
0.000166093
0.000177017
0.00022913
0.000388738
0.000654638
0.00085111
0.00077772
0.00048579
0.00012726
0.000132884
0.000140841
0.000147563
0.000155233
0.000154841
0.000155396
0.000185593
0.000309101
0.000547689
0.000749621
0.000705769
0.000454894
0.000121955
0.000127551
0.000134293
0.000140284
0.00014843
0.000146016
0.000139989
0.000153977
0.000240457
0.000428314
0.000606217
0.000590503
0.000401599
0.000116334
0.00012187
0.000127671
0.000132802
0.000140341
0.000137972
0.000129204
0.0001324
0.000186604
0.000319722
0.00045921
0.000465597
0.000337916
0.000110368
0.000115895
0.00012098
0.000125064
0.000131036
0.000130305
0.000120762
0.000117927
0.000147658
0.000232262
0.000331727
0.000351591
0.000274813
0.000104205
0.000109956
0.000114386
0.000117304
0.00012172
0.00012309
0.000113514
0.000107406
0.000120832
0.000168275
0.00023282
0.000257334
0.00021885
9.74744e-05
0.000103749
0.000107728
0.0001097
0.000112837
0.000115245
0.000106407
9.91048e-05
0.000102693
0.000125343
0.000163168
0.000185961
0.000172721
9.17151e-05
9.6695e-05
0.000100583
0.000102029
0.00010421
0.000106451
9.91654e-05
9.21175e-05
9.06923e-05
9.89437e-05
0.000118493
0.000136206
0.000136232
8.61908e-05
9.00136e-05
9.29426e-05
9.43861e-05
9.60292e-05
9.78505e-05
9.24506e-05
8.60466e-05
8.26445e-05
8.3828e-05
9.23668e-05
0.00010403
0.000108816
8.07724e-05
8.37817e-05
8.56994e-05
8.7049e-05
8.85217e-05
9.01617e-05
8.63412e-05
8.05788e-05
7.68647e-05
7.53164e-05
7.80663e-05
8.45182e-05
8.95349e-05
7.58006e-05
7.8092e-05
7.93507e-05
8.01069e-05
8.15861e-05
8.32786e-05
8.0594e-05
7.55406e-05
7.23034e-05
7.01376e-05
7.02716e-05
7.31654e-05
7.68449e-05
7.1144e-05
7.28117e-05
7.36117e-05
7.39301e-05
7.50661e-05
7.69977e-05
7.51661e-05
7.08238e-05
6.83465e-05
6.64046e-05
6.55723e-05
6.64753e-05
6.88041e-05
6.67307e-05
6.78669e-05
6.83615e-05
6.84645e-05
6.93035e-05
7.13315e-05
7.02437e-05
6.64747e-05
6.46336e-05
6.31201e-05
6.20634e-05
6.20972e-05
6.36293e-05
6.26759e-05
6.33789e-05
6.37317e-05
6.37145e-05
6.43639e-05
6.63184e-05
6.58027e-05
6.24817e-05
6.10337e-05
5.98889e-05
5.89047e-05
5.86854e-05
5.98897e-05
5.90095e-05
5.9388e-05
5.96898e-05
5.96015e-05
6.01252e-05
6.19861e-05
6.17749e-05
5.88539e-05
5.7595e-05
5.66522e-05
5.57974e-05
5.55705e-05
5.66839e-05
5.56962e-05
5.584e-05
5.60958e-05
5.60069e-05
5.64708e-05
5.8275e-05
5.8221e-05
5.55954e-05
5.44384e-05
5.35418e-05
5.27663e-05
5.25329e-05
5.36014e-05
5.26661e-05
5.26688e-05
5.28915e-05
5.28573e-05
5.33049e-05
5.50809e-05
5.5134e-05
5.2688e-05
5.16092e-05
5.07021e-05
4.99251e-05
4.96165e-05
5.05501e-05
4.98661e-05
4.97993e-05
5.00187e-05
5.00457e-05
5.0514e-05
5.22852e-05
5.24143e-05
5.01079e-05
4.90775e-05
4.81759e-05
4.73543e-05
4.69125e-05
4.75929e-05
4.72799e-05
4.71893e-05
4.74184e-05
4.74849e-05
4.80081e-05
4.97921e-05
4.99698e-05
4.77998e-05
4.67989e-05
4.59285e-05
4.50787e-05
4.44849e-05
4.48513e-05
4.48907e-05
4.48085e-05
4.50428e-05
4.51293e-05
4.57123e-05
4.75118e-05
4.77309e-05
4.56867e-05
4.47424e-05
4.38902e-05
4.30525e-05
4.23281e-05
4.2388e-05
4.26762e-05
4.26176e-05
4.28471e-05
4.29508e-05
4.35669e-05
4.53708e-05
4.5604e-05
4.36962e-05
4.28217e-05
4.19911e-05
4.11768e-05
4.03837e-05
4.01968e-05
4.06076e-05
4.05763e-05
4.07965e-05
4.09099e-05
4.15245e-05
4.33245e-05
4.35657e-05
4.17916e-05
4.09895e-05
4.01786e-05
3.93745e-05
3.8575e-05
3.8231e-05
3.86564e-05
3.86585e-05
3.88648e-05
3.89717e-05
3.95643e-05
4.1356e-05
4.16103e-05
3.99516e-05
3.92232e-05
3.84162e-05
3.76132e-05
3.68497e-05
3.64362e-05
3.6809e-05
3.6847e-05
3.70358e-05
3.71225e-05
3.7686e-05
3.94707e-05
3.9697e-05
3.81661e-05
3.75059e-05
3.66943e-05
3.58893e-05
3.51839e-05
3.47437e-05
3.50651e-05
3.51293e-05
3.52944e-05
3.53557e-05
3.58951e-05
3.76724e-05
3.78594e-05
3.64407e-05
3.58343e-05
3.50244e-05
3.4222e-05
3.35819e-05
3.31322e-05
3.34254e-05
3.34981e-05
3.36303e-05
3.36648e-05
3.41863e-05
3.59572e-05
3.60959e-05
3.47834e-05
3.42193e-05
3.34179e-05
3.26329e-05
3.2055e-05
3.16163e-05
3.18773e-05
3.19416e-05
3.20371e-05
3.20494e-05
3.25605e-05
3.43224e-05
3.44054e-05
3.32026e-05
3.26706e-05
3.18807e-05
3.11351e-05
3.06166e-05
3.02082e-05
3.04072e-05
3.0449e-05
3.05099e-05
3.05079e-05
3.10201e-05
3.27716e-05
3.27827e-05
3.1698e-05
3.11979e-05
3.04191e-05
2.97212e-05
2.92682e-05
2.89054e-05
2.90052e-05
2.90161e-05
2.9047e-05
2.90335e-05
2.95657e-05
3.1301e-05
3.12249e-05
3.02662e-05
2.98024e-05
2.90346e-05
2.83768e-05
2.79928e-05
2.76911e-05
2.80599e-05
2.76728e-05
2.7639e-05
2.76437e-05
2.76207e-05
2.81819e-05
2.98978e-05
2.97271e-05
2.88997e-05
2.84797e-05
2.77261e-05
2.70974e-05
2.67681e-05
2.65452e-05
2.67939e-05
2.66919e-05
2.72128e-05
2.79555e-05
2.7284e-05
2.66979e-05
2.65519e-05
2.69982e-05
2.67683e-05
2.63884e-05
2.63143e-05
2.62952e-05
2.62647e-05
2.68592e-05
2.85534e-05
2.82942e-05
2.75931e-05
2.72205e-05
2.64884e-05
2.58791e-05
2.55929e-05
2.54478e-05
2.55242e-05
2.53961e-05
2.59411e-05
2.65261e-05
2.58753e-05
2.53728e-05
2.5279e-05
2.57331e-05
2.55335e-05
2.51509e-05
2.50437e-05
2.50065e-05
2.4971e-05
2.55983e-05
2.72628e-05
2.69246e-05
2.63493e-05
2.60255e-05
2.53177e-05
2.47202e-05
2.44669e-05
2.43863e-05
2.42819e-05
2.41532e-05
2.47052e-05
2.51377e-05
2.45287e-05
2.41078e-05
2.40642e-05
2.45165e-05
2.43475e-05
2.39634e-05
2.38293e-05
2.37809e-05
2.37451e-05
2.44102e-05
2.6025e-05
2.56149e-05
2.51657e-05
2.48902e-05
2.42127e-05
2.36259e-05
2.33923e-05
2.33558e-05
2.30731e-05
2.29681e-05
2.35082e-05
2.38022e-05
2.32465e-05
2.2902e-05
2.29038e-05
2.33482e-05
2.32045e-05
2.28258e-05
2.26742e-05
2.26169e-05
2.25825e-05
2.32927e-05
2.48375e-05
2.43694e-05
2.40429e-05
2.3807e-05
2.31663e-05
2.25935e-05
2.23663e-05
2.2361e-05
2.19024e-05
2.18414e-05
2.23517e-05
2.2525e-05
2.20255e-05
2.17541e-05
2.17937e-05
2.22291e-05
2.21057e-05
2.17381e-05
2.15774e-05
2.15121e-05
2.14817e-05
2.22409e-05
2.36946e-05
2.31852e-05
2.29753e-05
2.27757e-05
2.21732e-05
2.16181e-05
2.13854e-05
2.14034e-05
2.07774e-05
2.07705e-05
2.12346e-05
2.13092e-05
2.08657e-05
2.0662e-05
2.07319e-05
2.11601e-05
2.10523e-05
2.07002e-05
2.05356e-05
2.04595e-05
2.04378e-05
2.12543e-05
2.25987e-05
2.20616e-05
2.19592e-05
2.17909e-05
2.12259e-05
2.0693e-05
2.04524e-05
2.04843e-05
1.98551e-05
1.97023e-05
1.97507e-05
2.01559e-05
2.01551e-05
1.97664e-05
1.96209e-05
1.97145e-05
2.01412e-05
2.00442e-05
1.97088e-05
1.95427e-05
1.94557e-05
1.94499e-05
2.03323e-05
2.15506e-05
2.09974e-05
2.09918e-05
2.08475e-05
2.03154e-05
1.98086e-05
1.95647e-05
1.96061e-05
1.88412e-05
1.86792e-05
1.8774e-05
1.91152e-05
1.90618e-05
1.87233e-05
1.8624e-05
1.87372e-05
1.917e-05
1.90786e-05
1.87561e-05
1.85879e-05
1.84947e-05
1.85206e-05
1.94753e-05
2.05493e-05
1.99888e-05
2.00658e-05
1.99402e-05
1.94402e-05
1.89603e-05
1.87185e-05
1.87655e-05
1.78635e-05
1.77093e-05
1.78402e-05
1.81133e-05
1.80253e-05
1.77313e-05
1.76649e-05
1.77975e-05
1.8243e-05
1.81491e-05
1.78348e-05
1.76648e-05
1.7574e-05
1.76469e-05
1.86767e-05
1.95901e-05
1.90346e-05
1.9177e-05
1.90643e-05
1.85969e-05
1.81436e-05
1.79086e-05
1.79607e-05
1.69251e-05
1.67925e-05
1.69371e-05
1.71507e-05
1.70419e-05
1.67865e-05
1.67417e-05
1.68972e-05
1.73572e-05
1.72508e-05
1.6941e-05
1.67724e-05
1.66916e-05
1.68252e-05
1.79253e-05
1.86644e-05
1.813e-05
1.83214e-05
1.82161e-05
1.77823e-05
1.73572e-05
1.71305e-05
1.71871e-05
1.60264e-05
1.59273e-05
1.60642e-05
1.62295e-05
1.61102e-05
1.58906e-05
1.58572e-05
1.60399e-05
1.65076e-05
1.63824e-05
1.60746e-05
1.59123e-05
1.5847e-05
1.60489e-05
1.7207e-05
1.77646e-05
1.72726e-05
1.74944e-05
1.73921e-05
1.69913e-05
1.6598e-05
1.63825e-05
1.64397e-05
1.51684e-05
1.51099e-05
1.52263e-05
1.53537e-05
1.52321e-05
1.5049e-05
1.5018e-05
1.52291e-05
1.56922e-05
1.55437e-05
1.524e-05
1.50891e-05
1.50415e-05
1.53147e-05
1.65101e-05
1.68879e-05
1.6457e-05
1.66953e-05
1.65922e-05
1.6223e-05
1.58642e-05
1.56609e-05
1.57152e-05
1.43529e-05
1.43361e-05
1.44241e-05
1.45283e-05
1.4411e-05
1.42652e-05
1.42299e-05
1.44666e-05
1.49115e-05
1.47377e-05
1.44445e-05
1.43087e-05
1.42785e-05
1.46209e-05
1.58298e-05
1.60348e-05
1.56796e-05
1.59232e-05
1.58197e-05
1.54884e-05
1.51563e-05
1.49663e-05
1.50131e-05
1.35818e-05
1.3601e-05
1.36594e-05
1.37555e-05
1.3648e-05
1.35372e-05
1.34924e-05
1.37515e-05
1.41657e-05
1.39698e-05
1.36928e-05
1.35745e-05
1.35612e-05
1.39713e-05
1.51636e-05
1.52049e-05
1.49383e-05
1.51843e-05
1.5079e-05
1.47705e-05
1.44748e-05
1.42975e-05
1.43362e-05
1.28562e-05
1.29017e-05
1.29348e-05
1.30345e-05
1.29395e-05
1.28571e-05
1.28002e-05
1.30796e-05
1.34539e-05
1.32435e-05
1.29875e-05
1.28874e-05
1.289e-05
1.3367e-05
1.45124e-05
1.4405e-05
1.42328e-05
1.44784e-05
1.43719e-05
1.40877e-05
1.38216e-05
1.3658e-05
1.36887e-05
1.21765e-05
1.22353e-05
1.22516e-05
1.23621e-05
1.22782e-05
1.22139e-05
1.21456e-05
1.24444e-05
1.27768e-05
1.25605e-05
1.23285e-05
1.22457e-05
1.22651e-05
1.28073e-05
1.38747e-05
1.36411e-05
1.35626e-05
1.38056e-05
1.3697e-05
1.34366e-05
1.31956e-05
1.30487e-05
1.30759e-05
1.15417e-05
1.16002e-05
1.16106e-05
1.17334e-05
1.16565e-05
1.15975e-05
1.15224e-05
1.18398e-05
1.21332e-05
1.19184e-05
1.17105e-05
1.16426e-05
1.16816e-05
1.22874e-05
1.32492e-05
1.29177e-05
1.29274e-05
1.31632e-05
1.30527e-05
1.28172e-05
1.26001e-05
1.24715e-05
1.24985e-05
1.09487e-05
1.0996e-05
1.10119e-05
1.11428e-05
1.10671e-05
1.1002e-05
1.09285e-05
1.12639e-05
1.15214e-05
1.13127e-05
1.11265e-05
1.10712e-05
1.11352e-05
1.18016e-05
1.26343e-05
1.22378e-05
1.23273e-05
1.25513e-05
1.24413e-05
1.22298e-05
1.20369e-05
1.19295e-05
1.19583e-05
1.03933e-05
1.04224e-05
1.0454e-05
1.05837e-05
1.05037e-05
1.04256e-05
1.03644e-05
1.07169e-05
1.09403e-05
1.07389e-05
1.05704e-05
1.05257e-05
1.06219e-05
1.13453e-05
1.20312e-05
1.16034e-05
1.17632e-05
1.19711e-05
1.18645e-05
1.16779e-05
1.15088e-05
1.14219e-05
1.14543e-05
9.87077e-06
9.87962e-06
9.93266e-06
1.00497e-05
9.96209e-06
9.86946e-06
9.83082e-06
1.01973e-05
1.03867e-05
1.01918e-05
1.00372e-05
1.00033e-05
1.01412e-05
1.0914e-05
1.14435e-05
1.10192e-05
1.1238e-05
1.14256e-05
1.13249e-05
1.11614e-05
1.10159e-05
1.0949e-05
1.0984e-05
9.37625e-06
9.36586e-06
9.44054e-06
9.53658e-06
9.44053e-06
9.33567e-06
9.32786e-06
9.70217e-06
9.85717e-06
9.6678e-06
9.52713e-06
9.50618e-06
9.69526e-06
1.05061e-05
1.08763e-05
1.04856e-05
1.07526e-05
1.09162e-05
1.08219e-05
1.06806e-05
1.05579e-05
1.05076e-05
1.0545e-05
8.90447e-06
8.87798e-06
8.97062e-06
9.04082e-06
8.93725e-06
8.82538e-06
8.85371e-06
9.2279e-06
9.34992e-06
9.16728e-06
9.04235e-06
9.03783e-06
9.28679e-06
1.01197e-05
1.03351e-05
1.00027e-05
1.03057e-05
1.04421e-05
1.03535e-05
1.0233e-05
1.01308e-05
1.00961e-05
1.01366e-05
8.39986e-06
8.44974e-06
8.41233e-06
8.51728e-06
8.56157e-06
8.45257e-06
8.33892e-06
8.40477e-06
8.77175e-06
8.86496e-06
8.69316e-06
8.5864e-06
8.60308e-06
8.91818e-06
9.75218e-06
9.82332e-06
9.56607e-06
9.89298e-06
1.00012e-05
9.91801e-06
9.81748e-06
9.73241e-06
9.71118e-06
9.75668e-06
7.98461e-06
8.0065e-06
7.96558e-06
8.07759e-06
8.09886e-06
7.98741e-06
7.87762e-06
7.97985e-06
8.33391e-06
8.40484e-06
8.24762e-06
8.16143e-06
8.20381e-06
8.58909e-06
9.39983e-06
9.34249e-06
9.17108e-06
9.51012e-06
9.5899e-06
9.51243e-06
9.43101e-06
9.36117e-06
9.35205e-06
9.40494e-06
7.5327e-06
7.58484e-06
7.57106e-06
7.53617e-06
7.65134e-06
7.65379e-06
7.54205e-06
7.44192e-06
7.57783e-06
7.91516e-06
7.97094e-06
7.83115e-06
7.7669e-06
7.83903e-06
8.29505e-06
9.05678e-06
8.89281e-06
8.81139e-06
9.15163e-06
9.20548e-06
9.1352e-06
9.07123e-06
9.01478e-06
9.01807e-06
9.07875e-06
7.14046e-06
7.1929e-06
7.1441e-06
7.12403e-06
7.24013e-06
7.22821e-06
7.1171e-06
7.0324e-06
7.19848e-06
7.51643e-06
7.56336e-06
7.44199e-06
7.39892e-06
7.50515e-06
8.02911e-06
8.71588e-06
8.47166e-06
8.48113e-06
8.81356e-06
8.84378e-06
8.78211e-06
8.7362e-06
8.69212e-06
8.70573e-06
8.77599e-06
6.76566e-06
6.80448e-06
6.72907e-06
6.73108e-06
6.84605e-06
6.82369e-06
6.71408e-06
6.64961e-06
6.84175e-06
7.13847e-06
7.18053e-06
7.0765e-06
7.05252e-06
7.19659e-06
7.78114e-06
8.37017e-06
8.07651e-06
8.17306e-06
8.49018e-06
8.50105e-06
8.45025e-06
8.42168e-06
8.39004e-06
8.41256e-06
8.49082e-06
6.40448e-06
6.41988e-06
6.33114e-06
6.35993e-06
6.4718e-06
6.44116e-06
6.33401e-06
6.29335e-06
6.50684e-06
6.78169e-06
6.82073e-06
6.7314e-06
6.72374e-06
6.9091e-06
7.54219e-06
8.01518e-06
7.70333e-06
7.88104e-06
8.17763e-06
8.17205e-06
8.13368e-06
8.12343e-06
8.10368e-06
8.13384e-06
8.2194e-06
6.05495e-06
6.04345e-06
5.95572e-06
6.01248e-06
6.11944e-06
6.08092e-06
5.97733e-06
5.96358e-06
6.19351e-06
6.44601e-06
6.48243e-06
6.40466e-06
6.41136e-06
6.64097e-06
7.3052e-06
7.65025e-06
7.35101e-06
7.60017e-06
7.872e-06
7.85375e-06
7.82868e-06
7.83616e-06
7.82744e-06
7.86321e-06
7.95637e-06
5.71735e-06
5.68083e-06
5.60722e-06
5.68898e-06
5.78895e-06
5.74272e-06
5.64436e-06
5.65924e-06
5.90013e-06
6.12997e-06
6.16431e-06
6.09607e-06
6.11634e-06
6.39239e-06
7.06709e-06
7.28058e-06
7.01975e-06
7.32908e-06
7.57333e-06
7.54469e-06
7.53254e-06
7.55645e-06
7.55766e-06
7.59682e-06
7.69681e-06
5.39337e-06
5.33686e-06
5.28695e-06
5.38847e-06
5.47928e-06
5.42551e-06
5.33472e-06
5.37838e-06
5.62487e-06
5.83253e-06
5.86576e-06
5.80658e-06
5.84198e-06
6.16559e-06
6.82754e-06
6.91449e-06
6.71244e-06
7.06859e-06
7.28343e-06
7.24631e-06
7.24652e-06
7.28537e-06
7.29313e-06
7.33278e-06
7.43933e-06
5.08446e-06
5.01507e-06
4.99385e-06
5.10923e-06
5.18923e-06
5.12845e-06
5.0475e-06
5.11903e-06
5.36603e-06
5.55359e-06
5.58725e-06
5.53734e-06
5.59063e-06
5.96211e-06
6.58838e-06
6.56178e-06
6.43201e-06
6.82046e-06
7.00495e-06
6.96096e-06
6.97178e-06
7.02397e-06
7.03783e-06
7.07588e-06
7.18752e-06
4.79118e-06
4.71739e-06
4.72559e-06
4.84915e-06
4.91742e-06
4.85047e-06
4.78165e-06
4.8791e-06
5.12209e-06
5.29282e-06
5.32856e-06
5.28859e-06
5.36457e-06
5.78266e-06
6.35065e-06
6.22995e-06
6.17967e-06
6.5861e-06
6.73906e-06
6.68985e-06
6.71134e-06
6.77632e-06
6.7967e-06
6.83226e-06
6.9455e-06
4.51395e-06
4.4446e-06
4.48007e-06
4.60708e-06
4.66289e-06
4.59103e-06
4.53608e-06
4.65638e-06
4.8922e-06
5.05024e-06
5.08945e-06
5.06007e-06
5.16372e-06
5.62447e-06
6.11472e-06
5.92424e-06
5.95462e-06
6.36478e-06
6.48634e-06
6.43387e-06
6.46627e-06
6.54538e-06
6.57425e-06
6.6072e-06
6.71982e-06
4.25388e-06
4.19609e-06
4.25526e-06
4.38249e-06
4.42546e-06
4.34999e-06
4.31019e-06
4.4499e-06
4.67646e-06
4.8256e-06
4.869e-06
4.85142e-06
4.98833e-06
5.48348e-06
5.87918e-06
5.64524e-06
5.75406e-06
6.1564e-06
6.24698e-06
6.19328e-06
6.23768e-06
6.33235e-06
6.37198e-06
6.40196e-06
6.51101e-06
4.01177e-06
3.97109e-06
4.04929e-06
4.17405e-06
4.20421e-06
4.1269e-06
4.10338e-06
4.25883e-06
4.4746e-06
4.61822e-06
4.66659e-06
4.66196e-06
4.83614e-06
5.35339e-06
5.64351e-06
5.39321e-06
5.57479e-06
5.96027e-06
6.02205e-06
5.96876e-06
6.02516e-06
6.13546e-06
6.18708e-06
6.21671e-06
6.32111e-06
3.78796e-06
3.7679e-06
3.86004e-06
3.98027e-06
3.99796e-06
3.92096e-06
3.91506e-06
4.08227e-06
4.28587e-06
4.42664e-06
4.48046e-06
4.49076e-06
4.70533e-06
5.22854e-06
5.40771e-06
5.16672e-06
5.41405e-06
5.7769e-06
5.81289e-06
5.76093e-06
5.82801e-06
5.95364e-06
6.01771e-06
6.04719e-06
6.14749e-06
3.58233e-06
3.58388e-06
3.68513e-06
3.79927e-06
3.80539e-06
3.7311e-06
3.74367e-06
3.91858e-06
4.10895e-06
4.24929e-06
4.30936e-06
4.33689e-06
4.5928e-06
5.10361e-06
5.17456e-06
4.9652e-06
5.26908e-06
5.60527e-06
5.61985e-06
5.57115e-06
5.64695e-06
5.78463e-06
5.86153e-06
5.89282e-06
5.9885e-06
3.39428e-06
3.41616e-06
3.52222e-06
3.62922e-06
3.62529e-06
3.55607e-06
3.58738e-06
3.76613e-06
3.94305e-06
4.08448e-06
4.15121e-06
4.19928e-06
4.4963e-06
4.97511e-06
4.94671e-06
4.78662e-06
5.13717e-06
5.44533e-06
5.44286e-06
5.39852e-06
5.48207e-06
5.62984e-06
5.71799e-06
5.75139e-06
5.84272e-06
3.22243e-06
3.26184e-06
3.36893e-06
3.46845e-06
3.45662e-06
3.39452e-06
3.44416e-06
3.62318e-06
3.78723e-06
3.93119e-06
4.00558e-06
4.07834e-06
4.41241e-06
4.83984e-06
4.72807e-06
4.63028e-06
5.01612e-06
5.29476e-06
5.28007e-06
5.24262e-06
5.33319e-06
5.48919e-06
5.58757e-06
5.62263e-06
5.70854e-06
3.06487e-06
3.11771e-06
3.2234e-06
3.31637e-06
3.29883e-06
3.24518e-06
3.31209e-06
3.48858e-06
3.6412e-06
3.78828e-06
3.8711e-06
3.97273e-06
4.33843e-06
4.69717e-06
4.52152e-06
4.49327e-06
4.90371e-06
5.15353e-06
5.13036e-06
5.10111e-06
5.19895e-06
5.36245e-06
5.47023e-06
5.50721e-06
5.58584e-06
2.91981e-06
2.98133e-06
3.08486e-06
3.17286e-06
3.15144e-06
3.10719e-06
3.18976e-06
3.36121e-06
3.50451e-06
3.65529e-06
3.74819e-06
3.88179e-06
4.27021e-06
4.5466e-06
4.3303e-06
4.37489e-06
4.79886e-06
5.01998e-06
4.9916e-06
4.97207e-06
5.07813e-06
5.24949e-06
5.36541e-06
5.40334e-06
5.47471e-06
2.78547e-06
2.85126e-06
2.95344e-06
3.03836e-06
3.01407e-06
2.97966e-06
3.07603e-06
3.24061e-06
3.37705e-06
3.53165e-06
3.63656e-06
3.80571e-06
4.20528e-06
4.39066e-06
4.1561e-06
4.27196e-06
4.70006e-06
4.89464e-06
4.86398e-06
4.85442e-06
4.96821e-06
5.14743e-06
5.27289e-06
5.31251e-06
5.37427e-06
2.66014e-06
2.7269e-06
2.8298e-06
2.913e-06
2.88615e-06
2.86223e-06
2.97029e-06
3.1263e-06
3.25813e-06
3.41733e-06
3.5375e-06
3.74427e-06
4.13965e-06
4.23086e-06
4.00056e-06
4.18365e-06
4.60734e-06
4.77647e-06
4.74535e-06
4.74689e-06
4.86961e-06
5.0564e-06
5.19057e-06
5.23332e-06
5.28658e-06
2.5424e-06
2.60819e-06
2.71459e-06
2.79663e-06
2.76713e-06
2.75419e-06
2.87158e-06
3.01829e-06
3.14786e-06
3.31235e-06
3.451e-06
3.6958e-06
4.07103e-06
4.07135e-06
3.8638e-06
4.1067e-06
4.51916e-06
4.66616e-06
4.63732e-06
4.64957e-06
4.77985e-06
4.97428e-06
5.11866e-06
5.1658e-06
5.21073e-06
2.43132e-06
2.49576e-06
2.60824e-06
2.68857e-06
2.65647e-06
2.65513e-06
2.77936e-06
2.91629e-06
3.04568e-06
3.21714e-06
3.37827e-06
3.65851e-06
3.99627e-06
3.91441e-06
3.74556e-06
4.04036e-06
4.43637e-06
4.56303e-06
4.53803e-06
4.56197e-06
4.70003e-06
4.90105e-06
5.05599e-06
5.11004e-06
5.14783e-06
2.32616e-06
2.39016e-06
2.51065e-06
2.58812e-06
2.55362e-06
2.56417e-06
2.69267e-06
2.82043e-06
2.9519e-06
3.1319e-06
3.31885e-06
3.62942e-06
3.91423e-06
3.76422e-06
3.64505e-06
3.98157e-06
4.35747e-06
4.46768e-06
4.44893e-06
4.48424e-06
4.62941e-06
4.83642e-06
5.00127e-06
5.06397e-06
5.09838e-06
2.2266e-06
2.29213e-06
2.42154e-06
2.49444e-06
2.45817e-06
2.48089e-06
2.61126e-06
2.73053e-06
2.86598e-06
3.0569e-06
3.27329e-06
3.60599e-06
3.82393e-06
3.62247e-06
3.56072e-06
3.93003e-06
4.28378e-06
4.37993e-06
4.36862e-06
4.41546e-06
4.5673e-06
4.78054e-06
4.95626e-06
5.02846e-06
5.06016e-06
2.13253e-06
2.20188e-06
2.34016e-06
2.40677e-06
2.36965e-06
2.40432e-06
2.53437e-06
2.64686e-06
2.78844e-06
2.99255e-06
3.24026e-06
3.58408e-06
3.72602e-06
3.49273e-06
3.49167e-06
3.88373e-06
4.21413e-06
4.29985e-06
4.29784e-06
4.3567e-06
4.5149e-06
4.73252e-06
4.91772e-06
5.00191e-06
5.03559e-06
2.04395e-06
2.11963e-06
2.26578e-06
2.32432e-06
2.28771e-06
2.33404e-06
2.46198e-06
2.56925e-06
2.71866e-06
2.93894e-06
3.21944e-06
3.56118e-06
3.62193e-06
3.37552e-06
3.43575e-06
3.84243e-06
4.1501e-06
4.22815e-06
4.23561e-06
4.30548e-06
4.47031e-06
4.69363e-06
4.88876e-06
4.98428e-06
5.02165e-06
1.96096e-06
2.04521e-06
2.19745e-06
2.24661e-06
2.21202e-06
2.26912e-06
2.3935e-06
2.49789e-06
2.6573e-06
2.89673e-06
3.20879e-06
3.53337e-06
3.51398e-06
3.27319e-06
3.39226e-06
3.80522e-06
4.09043e-06
4.16379e-06
4.18256e-06
4.26433e-06
4.43503e-06
4.66202e-06
4.8667e-06
4.97602e-06
5.02e-06
1.88364e-06
1.9784e-06
2.13431e-06
2.17303e-06
2.14217e-06
2.20921e-06
2.32913e-06
2.43259e-06
2.60376e-06
2.86579e-06
3.20692e-06
3.4993e-06
3.40527e-06
3.18534e-06
3.35863e-06
3.77193e-06
4.037e-06
4.1081e-06
4.13747e-06
4.23031e-06
4.40784e-06
4.63939e-06
4.8528e-06
4.97646e-06
5.03095e-06
1.81217e-06
1.91869e-06
2.07551e-06
2.10349e-06
2.07798e-06
2.15348e-06
2.26826e-06
2.37332e-06
2.55887e-06
2.84675e-06
3.21097e-06
3.45627e-06
3.29839e-06
3.11276e-06
3.33462e-06
3.74254e-06
3.98862e-06
4.05983e-06
4.10127e-06
4.20523e-06
4.3891e-06
4.62531e-06
4.84754e-06
4.98532e-06
5.05189e-06
1.74655e-06
1.86556e-06
2.02041e-06
2.03768e-06
2.01896e-06
2.1016e-06
2.21129e-06
2.32009e-06
2.52214e-06
2.83849e-06
3.21818e-06
3.4048e-06
3.19699e-06
3.05455e-06
3.31772e-06
3.71651e-06
3.94637e-06
4.01983e-06
4.0735e-06
4.18844e-06
4.37847e-06
4.61865e-06
4.8497e-06
5.00422e-06
5.08709e-06
1.68688e-06
1.81851e-06
1.96848e-06
1.97579e-06
1.96508e-06
2.05297e-06
2.15762e-06
2.27269e-06
2.49436e-06
2.84094e-06
3.22509e-06
3.34409e-06
3.10268e-06
3.01026e-06
3.30784e-06
3.69469e-06
3.91015e-06
3.98721e-06
4.05314e-06
4.1792e-06
4.37673e-06
4.62217e-06
4.8608e-06
5.03014e-06
5.13238e-06
1.63308e-06
1.77707e-06
1.91942e-06
1.91768e-06
1.91564e-06
2.00716e-06
2.1078e-06
2.23154e-06
2.47529e-06
2.85188e-06
3.22822e-06
3.27629e-06
3.01855e-06
2.97896e-06
3.303e-06
3.67567e-06
3.87946e-06
3.96254e-06
4.04172e-06
4.17827e-06
4.38181e-06
4.63241e-06
4.88057e-06
5.06696e-06
5.19067e-06
1.58515e-06
1.74005e-06
1.87269e-06
1.86353e-06
1.87062e-06
1.96389e-06
2.06128e-06
2.19609e-06
2.46501e-06
2.86973e-06
3.22443e-06
3.2022e-06
2.94468e-06
2.95883e-06
3.30271e-06
3.66068e-06
3.85496e-06
3.94414e-06
4.03631e-06
4.18465e-06
4.39569e-06
4.65118e-06
4.90788e-06
5.11264e-06
5.26225e-06
1.54296e-06
1.70656e-06
1.82855e-06
1.81373e-06
1.82967e-06
1.92324e-06
2.01935e-06
2.16844e-06
2.4654e-06
2.89364e-06
3.21296e-06
3.12662e-06
2.88467e-06
2.95074e-06
3.30698e-06
3.64904e-06
3.83623e-06
3.93337e-06
4.03858e-06
4.19815e-06
4.41695e-06
4.67811e-06
4.94326e-06
5.16606e-06
5.34421e-06
1.50702e-06
1.67578e-06
1.78535e-06
1.76697e-06
1.79134e-06
1.88341e-06
1.97901e-06
2.14321e-06
2.46747e-06
2.90923e-06
3.18023e-06
3.0417e-06
2.82929e-06
2.94382e-06
3.30624e-06
3.63243e-06
3.81493e-06
3.9216e-06
4.04013e-06
4.21043e-06
4.43659e-06
4.70452e-06
4.98135e-06
5.22581e-06
5.43416e-06
1.47293e-06
1.64646e-06
1.74622e-06
1.72668e-06
1.75885e-06
1.85007e-06
1.95041e-06
2.14102e-06
2.50699e-06
2.96497e-06
3.18082e-06
2.99483e-06
2.81603e-06
2.975e-06
3.34129e-06
3.65379e-06
3.83253e-06
3.94657e-06
4.07624e-06
4.25633e-06
4.48905e-06
4.76162e-06
5.04829e-06
5.31685e-06
5.56394e-06
1.47165e-06
1.63487e-06
1.71472e-06
1.69554e-06
1.73269e-06
1.81765e-06
1.91483e-06
2.10047e-06
2.44948e-06
2.85655e-06
2.98967e-06
2.81286e-06
2.70142e-06
2.88806e-06
3.23282e-06
3.51442e-06
3.68452e-06
3.81149e-06
3.95905e-06
4.15405e-06
4.39676e-06
4.67491e-06
4.96734e-06
5.24866e-06
5.51692e-06
1.31879e-06
1.51398e-06
1.58365e-06
1.56002e-06
1.60624e-06
1.69539e-06
1.83049e-06
2.14974e-06
2.69521e-06
3.21651e-06
3.35368e-06
3.06367e-06
2.94739e-06
3.2062e-06
3.59168e-06
3.91434e-06
4.11661e-06
4.2417e-06
4.37605e-06
4.56001e-06
4.79951e-06
5.08642e-06
5.41112e-06
5.76638e-06
6.14151e-06
2.20977e-06
2.25801e-06
2.29332e-06
2.34741e-06
2.4309e-06
2.52642e-06
2.62784e-06
2.73049e-06
2.81093e-06
2.83467e-06
2.7944e-06
2.74584e-06
2.78606e-06
2.89185e-06
3.01557e-06
3.14606e-06
3.28384e-06
3.4453e-06
3.65043e-06
3.90453e-06
4.20548e-06
4.53989e-06
4.8723e-06
5.14545e-06
5.375e-06
2.28216e-05
3.36109e-06
8.99676e-07
9.29262e-07
9.63463e-07
9.94488e-07
1.02237e-06
1.04784e-06
1.0715e-06
1.09383e-06
1.11527e-06
1.13618e-06
1.15689e-06
1.17765e-06
1.1987e-06
1.2202e-06
1.24235e-06
1.26536e-06
1.28941e-06
1.31471e-06
1.34154e-06
1.37017e-06
1.40088e-06
1.43381e-06
1.46893e-06
1.50591e-06
1.54422e-06
1.58322e-06
1.62239e-06
1.66135e-06
1.69968e-06
1.73686e-06
1.77241e-06
1.80585e-06
1.83654e-06
1.86405e-06
1.88747e-06
1.90527e-06
1.9154e-06
1.91628e-06
1.90893e-06
1.8964e-06
1.88155e-06
1.86627e-06
1.85123e-06
1.83653e-06
1.82216e-06
1.80873e-06
1.79704e-06
1.78752e-06
1.77931e-06
1.77147e-06
1.76355e-06
1.75552e-06
1.74767e-06
1.74034e-06
1.73391e-06
1.7288e-06
1.72547e-06
1.72426e-06
1.72523e-06
1.72827e-06
1.73339e-06
1.74062e-06
1.75021e-06
1.76283e-06
1.77963e-06
1.80254e-06
1.83513e-06
1.8846e-06
1.96424e-06
2.09637e-06
2.32399e-06
2.70581e-06
3.30005e-06
4.16935e-06
5.34429e-06
6.7835e-06
8.30257e-06
9.48662e-06
1.00269e-05
9.83829e-06
9.04942e-06
8.03853e-06
7.21065e-06
6.79339e-06
6.77599e-06
6.80912e-06
6.68775e-06
6.51711e-06
6.39048e-06
6.32636e-06
6.31273e-06
6.34355e-06
6.39816e-06
6.41257e-06
6.28353e-06
5.97459e-06
5.63901e-06
2.59031e-05
1.92604e-08
9.26441e-07
9.14824e-07
9.35466e-07
9.52146e-07
9.66086e-07
9.77477e-07
9.86558e-07
9.93543e-07
9.98645e-07
1.00206e-06
1.00403e-06
1.0047e-06
1.00413e-06
1.00231e-06
9.99326e-07
9.95239e-07
9.90087e-07
9.83935e-07
9.76882e-07
9.69033e-07
9.60497e-07
9.51291e-07
9.41509e-07
9.31329e-07
9.21158e-07
9.11421e-07
9.02525e-07
8.94829e-07
8.88643e-07
8.84284e-07
8.82032e-07
8.82014e-07
8.84268e-07
8.88923e-07
8.96224e-07
9.06632e-07
9.20339e-07
9.36882e-07
9.54464e-07
9.70362e-07
9.81536e-07
9.85998e-07
9.83621e-07
9.74088e-07
9.56625e-07
9.31153e-07
9.00141e-07
8.68877e-07
8.4228e-07
8.21207e-07
8.03421e-07
7.86123e-07
7.67763e-07
7.48557e-07
7.28143e-07
7.06196e-07
6.84567e-07
6.65197e-07
6.48707e-07
6.35832e-07
6.26802e-07
6.21345e-07
6.17925e-07
6.15142e-07
6.13194e-07
6.13598e-07
6.1771e-07
6.3929e-07
7.1127e-07
7.75016e-07
8.47967e-07
1.00323e-06
1.31995e-06
2.14984e-06
3.52807e-06
5.53349e-06
8.55567e-06
1.20122e-05
1.55941e-05
1.89531e-05
2.07868e-05
2.00963e-05
1.74539e-05
1.45546e-05
1.31373e-05
1.28723e-05
1.22866e-05
1.12884e-05
1.03292e-05
9.58161e-06
8.97846e-06
8.49173e-06
8.10012e-06
7.7281e-06
7.33015e-06
6.9254e-06
6.52915e-06
3.15145e-05
4.60954e-07
9.34203e-07
9.41198e-07
9.56217e-07
9.68966e-07
9.79445e-07
9.87863e-07
9.9444e-07
9.99393e-07
1.00292e-06
1.00522e-06
1.00657e-06
1.00721e-06
1.00726e-06
1.00674e-06
1.00573e-06
1.00437e-06
1.00275e-06
1.00097e-06
9.99152e-07
9.97465e-07
9.96111e-07
9.95244e-07
9.94897e-07
9.94986e-07
9.95488e-07
9.96425e-07
9.97823e-07
9.99746e-07
1.0023e-06
1.00559e-06
1.00976e-06
1.01498e-06
1.02144e-06
1.02936e-06
1.03895e-06
1.05041e-06
1.06399e-06
1.08014e-06
1.0992e-06
1.12083e-06
1.14335e-06
1.16287e-06
1.17608e-06
1.18213e-06
1.18182e-06
1.17368e-06
1.1549e-06
1.1259e-06
1.09528e-06
1.07073e-06
1.05311e-06
1.03948e-06
1.02655e-06
1.01314e-06
9.9963e-07
9.83552e-07
9.65496e-07
9.48627e-07
9.33619e-07
9.21325e-07
9.12803e-07
9.08633e-07
9.07984e-07
9.09354e-07
9.11728e-07
9.16616e-07
9.24155e-07
9.40102e-07
9.93763e-07
1.14365e-06
1.29171e-06
1.39358e-06
1.65217e-06
2.40896e-06
3.49253e-06
4.78035e-06
6.42184e-06
8.54549e-06
1.09232e-05
1.34052e-05
1.5271e-05
1.54067e-05
1.37952e-05
1.17976e-05
1.0542e-05
1.0248e-05
9.91118e-06
9.26891e-06
8.62722e-06
8.14517e-06
7.77761e-06
7.50022e-06
7.26393e-06
6.97144e-06
6.58395e-06
6.16783e-06
5.80822e-06
3.34502e-05
4.75193e-07
9.7186e-07
9.74072e-07
9.8442e-07
9.93327e-07
1.00033e-06
1.00563e-06
1.0094e-06
1.01185e-06
1.01315e-06
1.01344e-06
1.01293e-06
1.01188e-06
1.01046e-06
1.00866e-06
1.00649e-06
1.00407e-06
1.00146e-06
9.98752e-07
9.95987e-07
9.93263e-07
9.90713e-07
9.88522e-07
9.86801e-07
9.855e-07
9.84604e-07
9.84213e-07
9.84438e-07
9.85395e-07
9.87209e-07
9.90016e-07
9.93981e-07
9.99251e-07
1.00595e-06
1.0142e-06
1.02411e-06
1.03588e-06
1.04969e-06
1.0658e-06
1.08453e-06
1.10621e-06
1.13075e-06
1.15627e-06
1.17739e-06
1.19056e-06
1.19585e-06
1.19388e-06
1.18287e-06
1.15899e-06
1.12694e-06
1.09712e-06
1.07466e-06
1.05776e-06
1.04329e-06
1.0283e-06
1.01385e-06
9.9766e-07
9.78111e-07
9.58865e-07
9.41474e-07
9.26231e-07
9.14554e-07
9.07573e-07
9.04501e-07
9.03748e-07
9.03879e-07
9.06837e-07
9.12535e-07
9.2423e-07
9.63315e-07
1.08814e-06
1.24495e-06
1.35835e-06
1.53404e-06
2.17046e-06
3.27997e-06
4.72811e-06
6.57482e-06
8.90538e-06
1.14041e-05
1.40048e-05
1.60639e-05
1.65062e-05
1.5004e-05
1.28038e-05
1.12728e-05
1.09242e-05
1.06067e-05
9.90859e-06
9.18033e-06
8.61998e-06
8.18444e-06
7.84213e-06
7.54085e-06
7.17029e-06
6.69726e-06
6.21875e-06
5.84053e-06
3.48968e-05
4.20714e-07
1.01254e-06
1.01794e-06
1.02493e-06
1.03159e-06
1.03661e-06
1.04019e-06
1.04253e-06
1.04382e-06
1.04423e-06
1.04389e-06
1.04294e-06
1.0416e-06
1.0401e-06
1.03843e-06
1.03655e-06
1.03457e-06
1.03253e-06
1.0305e-06
1.02853e-06
1.02669e-06
1.02507e-06
1.02387e-06
1.02322e-06
1.02308e-06
1.02339e-06
1.0242e-06
1.0256e-06
1.02767e-06
1.03051e-06
1.03425e-06
1.03907e-06
1.04511e-06
1.05251e-06
1.0614e-06
1.07194e-06
1.08431e-06
1.09874e-06
1.11547e-06
1.13475e-06
1.15689e-06
1.18174e-06
1.2093e-06
1.23598e-06
1.25599e-06
1.2671e-06
1.26992e-06
1.26396e-06
1.24584e-06
1.21543e-06
1.18239e-06
1.15562e-06
1.1357e-06
1.11961e-06
1.10365e-06
1.08858e-06
1.07274e-06
1.05295e-06
1.03209e-06
1.01293e-06
9.95575e-07
9.81305e-07
9.72083e-07
9.67464e-07
9.65813e-07
9.65114e-07
9.67309e-07
9.72363e-07
9.81717e-07
1.0095e-06
1.10821e-06
1.28672e-06
1.40661e-06
1.51982e-06
2.00221e-06
2.99743e-06