/*--------------------------------*- C++ -*----------------------------------*\
  =========                 |
  \\      /  F ield         | OpenFOAM: The Open Source CFD Toolbox
   \\    /   O peration     | Website:  https://openfoam.org
    \\  /    A nd           | Version:  9
     \\/     M anipulation  |
\*---------------------------------------------------------------------------*/
FoamFile
{
    format      ascii;
    class       volScalarField;
    location    "1500";
    object      nut;
}
// * * * * * * * * * * * * * * * * * * * * * * * * * * * * * * * * * * * * * //

dimensions      [0 2 -1 0 0 0 0];

internalField   nonuniform List<scalar> 
13354
(
1.51518e-06
1.6359e-06
1.7458e-06
1.8707e-06
2.02795e-06
2.24682e-06
2.64199e-06
3.21394e-06
3.62473e-06
3.47475e-06
2.5757e-06
1.60923e-06
6.35445e-07
1.47466e-06
1.5863e-06
1.69716e-06
1.8209e-06
1.98785e-06
2.24391e-06
2.73337e-06
3.59826e-06
4.36201e-06
4.02294e-06
2.62985e-06
1.46499e-06
9.4863e-07
1.47381e-06
1.56302e-06
1.64819e-06
1.76653e-06
1.92715e-06
2.19241e-06
2.72567e-06
3.80268e-06
5.04853e-06
5.14222e-06
3.66272e-06
2.24406e-06
1.58099e-06
1.50688e-06
1.58271e-06
1.63347e-06
1.72904e-06
1.87205e-06
2.1155e-06
2.62566e-06
3.75944e-06
5.43802e-06
6.31326e-06
5.35863e-06
3.76207e-06
2.6164e-06
1.54471e-06
1.59717e-06
1.6412e-06
1.71557e-06
1.83241e-06
2.01873e-06
2.4293e-06
3.46533e-06
5.40752e-06
7.28166e-06
7.27086e-06
5.62041e-06
3.67373e-06
1.57999e-06
1.61816e-06
1.67233e-06
1.73248e-06
1.82096e-06
1.93747e-06
2.20135e-06
3.03338e-06
5.07151e-06
7.84369e-06
8.98159e-06
7.34298e-06
4.51145e-06
1.60436e-06
1.64053e-06
1.70778e-06
1.75969e-06
1.82995e-06
1.87775e-06
1.99757e-06
2.59546e-06
4.50961e-06
7.74149e-06
9.78107e-06
8.3344e-06
5.00366e-06
1.61181e-06
1.65607e-06
1.7232e-06
1.77304e-06
1.84272e-06
1.84292e-06
1.85371e-06
2.23311e-06
3.84092e-06
7.01976e-06
9.45664e-06
8.34499e-06
5.10272e-06
1.60675e-06
1.66295e-06
1.72668e-06
1.77613e-06
1.85289e-06
1.83009e-06
1.76605e-06
1.96648e-06
3.18106e-06
5.87499e-06
8.24885e-06
7.58909e-06
4.85902e-06
1.59244e-06
1.6587e-06
1.72226e-06
1.77013e-06
1.84478e-06
1.82294e-06
1.72367e-06
1.79088e-06
2.60964e-06
4.63492e-06
6.65112e-06
6.4313e-06
4.3723e-06
1.56837e-06
1.64355e-06
1.70856e-06
1.75246e-06
1.81636e-06
1.81551e-06
1.70435e-06
1.68738e-06
2.1697e-06
3.52391e-06
5.06272e-06
5.17223e-06
3.78824e-06
1.53719e-06
1.62164e-06
1.68688e-06
1.72474e-06
1.77819e-06
1.80537e-06
1.69461e-06
1.62578e-06
1.85957e-06
2.65467e-06
3.71471e-06
4.00481e-06
3.2088e-06
1.49517e-06
1.58989e-06
1.65591e-06
1.68961e-06
1.73448e-06
1.7771e-06
1.67919e-06
1.58611e-06
1.65355e-06
2.05023e-06
2.70851e-06
3.04577e-06
2.68616e-06
1.46028e-06
1.54104e-06
1.61073e-06
1.64441e-06
1.6829e-06
1.72594e-06
1.65215e-06
1.55464e-06
1.52729e-06
1.68022e-06
2.04313e-06
2.33656e-06
2.23918e-06
1.42353e-06
1.49076e-06
1.55129e-06
1.58988e-06
1.62586e-06
1.66542e-06
1.6178e-06
1.5238e-06
1.45612e-06
1.48346e-06
1.65563e-06
1.86303e-06
1.88348e-06
1.3838e-06
1.4411e-06
1.49024e-06
1.53019e-06
1.56686e-06
1.60495e-06
1.57589e-06
1.49055e-06
1.41738e-06
1.39298e-06
1.45786e-06
1.57888e-06
1.62783e-06
1.34719e-06
1.39469e-06
1.43506e-06
1.46745e-06
1.50558e-06
1.54448e-06
1.52718e-06
1.45538e-06
1.3939e-06
1.35635e-06
1.36943e-06
1.42682e-06
1.46596e-06
1.31207e-06
1.35018e-06
1.38258e-06
1.40775e-06
1.44108e-06
1.48342e-06
1.47532e-06
1.41763e-06
1.37378e-06
1.3403e-06
1.33318e-06
1.35399e-06
1.37695e-06
1.27745e-06
1.30665e-06
1.33198e-06
1.352e-06
1.3805e-06
1.42454e-06
1.42542e-06
1.37826e-06
1.34942e-06
1.32542e-06
1.31395e-06
1.32012e-06
1.3351e-06
1.24538e-06
1.26674e-06
1.28717e-06
1.30272e-06
1.3274e-06
1.37069e-06
1.37842e-06
1.33789e-06
1.3185e-06
1.30348e-06
1.29487e-06
1.29954e-06
1.31547e-06
1.21679e-06
1.23197e-06
1.24919e-06
1.26082e-06
1.28223e-06
1.32435e-06
1.33493e-06
1.29884e-06
1.28361e-06
1.274e-06
1.2697e-06
1.27816e-06
1.29982e-06
1.192e-06
1.2024e-06
1.21678e-06
1.22605e-06
1.24508e-06
1.28642e-06
1.2979e-06
1.26401e-06
1.24991e-06
1.24159e-06
1.23991e-06
1.2513e-06
1.27884e-06
1.17058e-06
1.17773e-06
1.18985e-06
1.19832e-06
1.21577e-06
1.2566e-06
1.26844e-06
1.235e-06
1.22099e-06
1.21179e-06
1.20988e-06
1.22098e-06
1.25086e-06
1.1519e-06
1.15697e-06
1.16784e-06
1.17614e-06
1.19289e-06
1.23359e-06
1.24552e-06
1.21227e-06
1.19783e-06
1.18746e-06
1.18343e-06
1.19138e-06
1.21895e-06
1.1359e-06
1.13965e-06
1.14986e-06
1.1579e-06
1.17498e-06
1.216e-06
1.22778e-06
1.19511e-06
1.18021e-06
1.16907e-06
1.16272e-06
1.16603e-06
1.18814e-06
1.12247e-06
1.12552e-06
1.13517e-06
1.14277e-06
1.16068e-06
1.20234e-06
1.21409e-06
1.18201e-06
1.16764e-06
1.15568e-06
1.14767e-06
1.14622e-06
1.1618e-06
1.11122e-06
1.11402e-06
1.12309e-06
1.13041e-06
1.14882e-06
1.19114e-06
1.20251e-06
1.17139e-06
1.15797e-06
1.14561e-06
1.13633e-06
1.13121e-06
1.14082e-06
1.10168e-06
1.10446e-06
1.11305e-06
1.12011e-06
1.13838e-06
1.18146e-06
1.19256e-06
1.16242e-06
1.15e-06
1.1373e-06
1.1267e-06
1.11928e-06
1.12447e-06
1.0934e-06
1.09651e-06
1.1046e-06
1.11113e-06
1.12887e-06
1.17281e-06
1.18402e-06
1.15448e-06
1.14308e-06
1.12958e-06
1.11758e-06
1.10908e-06
1.11155e-06
1.08618e-06
1.08996e-06
1.09756e-06
1.10322e-06
1.12021e-06
1.1652e-06
1.1756e-06
1.14709e-06
1.13655e-06
1.12193e-06
1.10849e-06
1.09974e-06
1.10021e-06
1.08017e-06
1.08457e-06
1.09156e-06
1.0962e-06
1.11258e-06
1.15869e-06
1.16806e-06
1.14026e-06
1.13012e-06
1.11444e-06
1.09969e-06
1.09112e-06
1.08987e-06
1.07562e-06
1.08022e-06
1.08625e-06
1.08979e-06
1.10576e-06
1.15316e-06
1.16123e-06
1.1341e-06
1.12401e-06
1.10732e-06
1.09169e-06
1.08343e-06
1.08108e-06
1.07221e-06
1.07662e-06
1.08153e-06
1.08405e-06
1.09976e-06
1.14847e-06
1.15505e-06
1.12878e-06
1.11845e-06
1.10081e-06
1.08499e-06
1.07715e-06
1.07446e-06
1.06962e-06
1.07338e-06
1.07719e-06
1.07892e-06
1.09474e-06
1.14483e-06
1.14927e-06
1.12432e-06
1.11376e-06
1.09513e-06
1.07951e-06
1.07255e-06
1.07019e-06
1.06761e-06
1.07038e-06
1.0731e-06
1.07414e-06
1.0908e-06
1.14221e-06
1.14387e-06
1.12071e-06
1.11011e-06
1.09044e-06
1.0749e-06
1.06922e-06
1.0679e-06
1.07472e-06
1.06625e-06
1.06748e-06
1.0692e-06
1.06954e-06
1.08742e-06
1.14022e-06
1.13867e-06
1.11775e-06
1.10749e-06
1.0869e-06
1.07109e-06
1.06639e-06
1.06702e-06
1.03018e-06
1.03187e-06
1.05387e-06
1.08514e-06
1.0713e-06
1.05699e-06
1.05627e-06
1.07617e-06
1.0739e-06
1.06486e-06
1.0645e-06
1.06524e-06
1.06496e-06
1.08433e-06
1.1386e-06
1.13384e-06
1.1153e-06
1.10565e-06
1.08441e-06
1.06802e-06
1.06403e-06
1.06681e-06
1.02992e-06
1.0303e-06
1.05373e-06
1.08086e-06
1.06621e-06
1.05359e-06
1.0543e-06
1.07514e-06
1.07348e-06
1.0634e-06
1.06159e-06
1.06142e-06
1.06059e-06
1.08159e-06
1.13724e-06
1.1294e-06
1.11357e-06
1.10471e-06
1.08294e-06
1.06569e-06
1.06216e-06
1.06677e-06
1.02906e-06
1.02891e-06
1.05338e-06
1.07602e-06
1.06127e-06
1.05051e-06
1.0528e-06
1.07433e-06
1.07319e-06
1.062e-06
1.05887e-06
1.05802e-06
1.05677e-06
1.07971e-06
1.13611e-06
1.12524e-06
1.11253e-06
1.10461e-06
1.08259e-06
1.06443e-06
1.06088e-06
1.06665e-06
1.02766e-06
1.02789e-06
1.05284e-06
1.0709e-06
1.05656e-06
1.04777e-06
1.05162e-06
1.07358e-06
1.07276e-06
1.06077e-06
1.0565e-06
1.055e-06
1.05343e-06
1.07879e-06
1.13519e-06
1.12157e-06
1.11226e-06
1.10509e-06
1.08316e-06
1.06422e-06
1.06015e-06
1.06667e-06
1.02582e-06
1.02732e-06
1.05211e-06
1.06569e-06
1.05201e-06
1.04536e-06
1.05067e-06
1.07294e-06
1.07224e-06
1.05974e-06
1.05463e-06
1.05243e-06
1.0506e-06
1.07877e-06
1.13428e-06
1.11837e-06
1.11267e-06
1.10624e-06
1.08453e-06
1.06499e-06
1.05986e-06
1.06691e-06
1.02382e-06
1.0272e-06
1.05109e-06
1.06055e-06
1.04771e-06
1.04325e-06
1.04985e-06
1.07247e-06
1.0718e-06
1.059e-06
1.05315e-06
1.05007e-06
1.04818e-06
1.07979e-06
1.13354e-06
1.11563e-06
1.11363e-06
1.10788e-06
1.08641e-06
1.06655e-06
1.0602e-06
1.06745e-06
1.02525e-06
1.02182e-06
1.02741e-06
1.04971e-06
1.05558e-06
1.04371e-06
1.04131e-06
1.04904e-06
1.07222e-06
1.07145e-06
1.05845e-06
1.05189e-06
1.04781e-06
1.04626e-06
1.08204e-06
1.13311e-06
1.11349e-06
1.11508e-06
1.10979e-06
1.08846e-06
1.0685e-06
1.06118e-06
1.06849e-06
1.02422e-06
1.01994e-06
1.02763e-06
1.04787e-06
1.05081e-06
1.03994e-06
1.03923e-06
1.04801e-06
1.07216e-06
1.07111e-06
1.05771e-06
1.05035e-06
1.04546e-06
1.04511e-06
1.0858e-06
1.13302e-06
1.1118e-06
1.11677e-06
1.11176e-06
1.0906e-06
1.07065e-06
1.06262e-06
1.06993e-06
1.0228e-06
1.01832e-06
1.02793e-06
1.04559e-06
1.04618e-06
1.03623e-06
1.03675e-06
1.04668e-06
1.07221e-06
1.07049e-06
1.05641e-06
1.04819e-06
1.0429e-06
1.04473e-06
1.09096e-06
1.13316e-06
1.11062e-06
1.11846e-06
1.11358e-06
1.09267e-06
1.07278e-06
1.06436e-06
1.07169e-06
1.02109e-06
1.01705e-06
1.02766e-06
1.04285e-06
1.04159e-06
1.03247e-06
1.03376e-06
1.04514e-06
1.07229e-06
1.0693e-06
1.05427e-06
1.04529e-06
1.04008e-06
1.04511e-06
1.0971e-06
1.13301e-06
1.10984e-06
1.12002e-06
1.11501e-06
1.09452e-06
1.07485e-06
1.06615e-06
1.07356e-06
1.01908e-06
1.01624e-06
1.0268e-06
1.03975e-06
1.03712e-06
1.02887e-06
1.03047e-06
1.04366e-06
1.07215e-06
1.06743e-06
1.05123e-06
1.04175e-06
1.037e-06
1.04596e-06
1.1036e-06
1.13214e-06
1.1094e-06
1.12116e-06
1.11581e-06
1.09583e-06
1.07671e-06
1.06791e-06
1.07523e-06
1.01684e-06
1.0158e-06
1.02561e-06
1.03661e-06
1.03304e-06
1.02594e-06
1.02738e-06
1.04255e-06
1.07171e-06
1.06483e-06
1.04753e-06
1.0379e-06
1.03382e-06
1.04719e-06
1.10975e-06
1.13028e-06
1.10913e-06
1.12184e-06
1.11595e-06
1.0965e-06
1.0782e-06
1.06943e-06
1.07649e-06
1.01452e-06
1.01565e-06
1.02416e-06
1.03382e-06
1.02978e-06
1.02413e-06
1.02498e-06
1.04204e-06
1.07103e-06
1.06167e-06
1.04365e-06
1.0342e-06
1.03086e-06
1.04887e-06
1.1153e-06
1.12732e-06
1.10884e-06
1.12199e-06
1.11562e-06
1.09731e-06
1.07941e-06
1.07074e-06
1.07728e-06
1.01234e-06
1.01561e-06
1.02258e-06
1.0317e-06
1.02763e-06
1.02356e-06
1.02343e-06
1.04222e-06
1.07015e-06
1.05834e-06
1.04008e-06
1.03108e-06
1.0285e-06
1.05138e-06
1.12005e-06
1.12319e-06
1.10854e-06
1.12208e-06
1.11517e-06
1.09704e-06
1.08037e-06
1.07185e-06
1.07777e-06
1.01051e-06
1.0156e-06
1.02112e-06
1.03043e-06
1.02664e-06
1.02395e-06
1.0225e-06
1.043e-06
1.06911e-06
1.05522e-06
1.03717e-06
1.02881e-06
1.027e-06
1.05505e-06
1.12409e-06
1.11821e-06
1.10826e-06
1.12221e-06
1.11477e-06
1.09709e-06
1.08128e-06
1.07298e-06
1.07832e-06
1.0093e-06
1.01557e-06
1.01997e-06
1.03003e-06
1.02655e-06
1.02466e-06
1.02179e-06
1.04408e-06
1.06808e-06
1.05266e-06
1.03518e-06
1.02752e-06
1.02659e-06
1.06007e-06
1.12731e-06
1.1129e-06
1.10811e-06
1.12246e-06
1.11445e-06
1.09727e-06
1.08213e-06
1.07437e-06
1.0794e-06
1.00889e-06
1.01549e-06
1.01938e-06
1.03041e-06
1.02698e-06
1.02498e-06
1.02088e-06
1.04513e-06
1.06708e-06
1.05069e-06
1.03394e-06
1.02689e-06
1.02712e-06
1.06636e-06
1.12956e-06
1.10763e-06
1.10822e-06
1.12271e-06
1.11416e-06
1.09771e-06
1.08327e-06
1.07622e-06
1.08124e-06
1.00931e-06
1.01542e-06
1.01954e-06
1.03135e-06
1.02752e-06
1.02447e-06
1.01969e-06
1.0461e-06
1.06611e-06
1.0491e-06
1.03305e-06
1.0265e-06
1.0284e-06
1.07369e-06
1.13067e-06
1.10281e-06
1.10875e-06
1.12311e-06
1.11416e-06
1.09856e-06
1.08498e-06
1.07902e-06
1.08419e-06
1.01048e-06
1.01544e-06
1.0206e-06
1.03247e-06
1.02769e-06
1.02293e-06
1.01839e-06
1.0472e-06
1.0652e-06
1.04767e-06
1.03206e-06
1.02593e-06
1.03029e-06
1.0819e-06
1.13065e-06
1.09884e-06
1.10999e-06
1.1239e-06
1.11484e-06
1.1003e-06
1.08771e-06
1.08287e-06
1.08837e-06
1.0122e-06
1.01562e-06
1.02237e-06
1.03329e-06
1.02719e-06
1.02043e-06
1.01714e-06
1.04838e-06
1.06417e-06
1.04603e-06
1.03062e-06
1.02498e-06
1.03289e-06
1.09082e-06
1.12976e-06
1.09642e-06
1.1125e-06
1.1255e-06
1.11658e-06
1.10315e-06
1.09172e-06
1.08806e-06
1.0938e-06
1.01421e-06
1.0159e-06
1.02434e-06
1.03344e-06
1.02583e-06
1.01717e-06
1.01615e-06
1.0495e-06
1.06272e-06
1.04388e-06
1.02877e-06
1.02394e-06
1.03662e-06
1.10051e-06
1.12844e-06
1.09602e-06
1.11663e-06
1.12835e-06
1.11962e-06
1.10737e-06
1.09719e-06
1.09454e-06
1.10049e-06
1.0161e-06
1.01601e-06
1.02593e-06
1.03258e-06
1.02347e-06
1.01328e-06
1.01537e-06
1.05026e-06
1.06076e-06
1.04134e-06
1.02685e-06
1.02332e-06
1.04205e-06
1.11104e-06
1.12726e-06
1.09811e-06
1.12266e-06
1.13257e-06
1.12402e-06
1.11302e-06
1.10403e-06
1.10234e-06
1.10858e-06
1.01035e-06
1.01731e-06
1.01559e-06
1.02655e-06
1.03058e-06
1.02014e-06
1.00888e-06
1.01461e-06
1.05042e-06
1.05833e-06
1.03882e-06
1.02539e-06
1.02385e-06
1.04983e-06
1.12239e-06
1.12663e-06
1.10268e-06
1.13045e-06
1.1383e-06
1.1299e-06
1.1202e-06
1.11221e-06
1.1114e-06
1.11812e-06
1.01289e-06
1.01714e-06
1.01429e-06
1.0259e-06
1.02745e-06
1.01598e-06
1.00419e-06
1.01388e-06
1.05007e-06
1.05586e-06
1.03681e-06
1.02492e-06
1.02606e-06
1.06035e-06
1.13437e-06
1.12689e-06
1.10972e-06
1.13986e-06
1.14536e-06
1.13716e-06
1.12889e-06
1.12182e-06
1.12182e-06
1.12933e-06
1.00829e-06
1.01484e-06
1.01496e-06
1.01192e-06
1.02391e-06
1.02331e-06
1.01107e-06
9.99423e-07
1.01323e-06
1.04934e-06
1.05364e-06
1.03556e-06
1.02565e-06
1.03019e-06
1.07357e-06
1.14641e-06
1.12815e-06
1.11893e-06
1.15052e-06
1.15372e-06
1.14592e-06
1.13903e-06
1.13281e-06
1.13378e-06
1.14219e-06
1.0083e-06
1.01512e-06
1.01064e-06
1.00847e-06
1.02078e-06
1.01846e-06
1.00553e-06
9.94822e-07
1.01281e-06
1.04846e-06
1.05191e-06
1.03512e-06
1.02734e-06
1.03608e-06
1.08903e-06
1.1577e-06
1.1303e-06
1.12996e-06
1.16212e-06
1.16305e-06
1.15591e-06
1.15065e-06
1.14528e-06
1.14711e-06
1.15669e-06
1.00776e-06
1.013e-06
1.00446e-06
1.0043e-06
1.01685e-06
1.01323e-06
9.99711e-07
9.90714e-07
1.01282e-06
1.04766e-06
1.05069e-06
1.03526e-06
1.02957e-06
1.04331e-06
1.10576e-06
1.16716e-06
1.13311e-06
1.14218e-06
1.17414e-06
1.17307e-06
1.16692e-06
1.16343e-06
1.15904e-06
1.16168e-06
1.17235e-06
1.00611e-06
1.00827e-06
9.97059e-07
9.99917e-07
1.01261e-06
1.0079e-06
9.93882e-07
9.87341e-07
1.01339e-06
1.04717e-06
1.04995e-06
1.03568e-06
1.03189e-06
1.05146e-06
1.12273e-06
1.17391e-06
1.13618e-06
1.15496e-06
1.18602e-06
1.18316e-06
1.17836e-06
1.17693e-06
1.17364e-06
1.17705e-06
1.18883e-06
1.00309e-06
1.00142e-06
9.89335e-07
9.95872e-07
1.00858e-06
1.00272e-06
9.88322e-07
9.85021e-07
1.0147e-06
1.04715e-06
1.04968e-06
1.03627e-06
1.03424e-06
1.06048e-06
1.13903e-06
1.17735e-06
1.1394e-06
1.16774e-06
1.1973e-06
1.19291e-06
1.18971e-06
1.19053e-06
1.18838e-06
1.19242e-06
1.20549e-06
9.98757e-07
9.93225e-07
9.82223e-07
9.92513e-07
1.00498e-06
9.97868e-07
9.83323e-07
9.83945e-07
1.01679e-06
1.04761e-06
1.04989e-06
1.03714e-06
1.03689e-06
1.07059e-06
1.15421e-06
1.17784e-06
1.14297e-06
1.18034e-06
1.20785e-06
1.20213e-06
1.20063e-06
1.20376e-06
1.20277e-06
1.20725e-06
1.22164e-06
9.93491e-07
9.84537e-07
9.76331e-07
9.90021e-07
1.00189e-06
9.93401e-07
9.79089e-07
9.84138e-07
1.01958e-06
1.04853e-06
1.05069e-06
1.03866e-06
1.04053e-06
1.08243e-06
1.16817e-06
1.17619e-06
1.14755e-06
1.19302e-06
1.218e-06
1.21105e-06
1.21135e-06
1.21681e-06
1.21662e-06
1.22117e-06
1.23696e-06
9.87671e-07
9.76134e-07
9.71909e-07
9.88422e-07
9.99373e-07
9.8943e-07
9.75789e-07
9.85606e-07
1.02297e-06
1.05012e-06
1.05243e-06
1.04126e-06
1.04586e-06
1.09665e-06
1.18126e-06
1.17385e-06
1.15395e-06
1.20615e-06
1.22821e-06
1.22015e-06
1.22216e-06
1.22995e-06
1.23058e-06
1.23487e-06
1.25191e-06
9.81568e-07
9.68661e-07
9.68996e-07
9.87652e-07
9.97424e-07
9.85983e-07
9.73524e-07
9.88275e-07
1.02689e-06
1.05257e-06
1.05533e-06
1.04525e-06
1.05361e-06
1.11381e-06
1.19362e-06
1.17208e-06
1.16293e-06
1.22022e-06
1.23883e-06
1.22981e-06
1.23369e-06
1.24393e-06
1.24556e-06
1.24938e-06
1.26715e-06
9.75432e-07
9.6262e-07
9.6762e-07
9.8779e-07
9.96129e-07
9.83244e-07
9.72443e-07
9.92053e-07
1.03137e-06
1.05611e-06
1.05966e-06
1.05093e-06
1.06424e-06
1.13398e-06
1.20534e-06
1.172e-06
1.17486e-06
1.23534e-06
1.2501e-06
1.24033e-06
1.24632e-06
1.25945e-06
1.26252e-06
1.26582e-06
1.28389e-06
9.69686e-07
9.58318e-07
9.6781e-07
9.89048e-07
9.95723e-07
9.81466e-07
9.72763e-07
9.97022e-07
1.03662e-06
1.061e-06
1.06555e-06
1.05854e-06
1.07822e-06
1.15686e-06
1.21608e-06
1.17413e-06
1.18983e-06
1.25176e-06
1.26228e-06
1.25196e-06
1.26036e-06
1.27691e-06
1.282e-06
1.28469e-06
1.30257e-06
9.64711e-07
9.56017e-07
9.69567e-07
9.91489e-07
9.96309e-07
9.80853e-07
9.7473e-07
1.0033e-06
1.04281e-06
1.06742e-06
1.07322e-06
1.06833e-06
1.09568e-06
1.18167e-06
1.22564e-06
1.17894e-06
1.20777e-06
1.26952e-06
1.27565e-06
1.26498e-06
1.27599e-06
1.29625e-06
1.30381e-06
1.30637e-06
1.32384e-06
9.60852e-07
9.55844e-07
9.7282e-07
9.95088e-07
9.97886e-07
9.81527e-07
9.78576e-07
1.01099e-06
1.04999e-06
1.07535e-06
1.08265e-06
1.08048e-06
1.11674e-06
1.20762e-06
1.23378e-06
1.18654e-06
1.22852e-06
1.28892e-06
1.29071e-06
1.27976e-06
1.29328e-06
1.31748e-06
1.32786e-06
1.3304e-06
1.34755e-06
9.58375e-07
9.57672e-07
9.77395e-07
9.99709e-07
1.00039e-06
9.83576e-07
9.84372e-07
1.02002e-06
1.05808e-06
1.08474e-06
1.09388e-06
1.09518e-06
1.14125e-06
1.23371e-06
1.2408e-06
1.19732e-06
1.25189e-06
1.3099e-06
1.30776e-06
1.29686e-06
1.31265e-06
1.34042e-06
1.35392e-06
1.35688e-06
1.37362e-06
9.57493e-07
9.61247e-07
9.8301e-07
1.00512e-06
1.00372e-06
9.86968e-07
9.92012e-07
1.03025e-06
1.0671e-06
1.09553e-06
1.10675e-06
1.11252e-06
1.16914e-06
1.25918e-06
1.24701e-06
1.21128e-06
1.27762e-06
1.33268e-06
1.3271e-06
1.31649e-06
1.33445e-06
1.36556e-06
1.38214e-06
1.38568e-06
1.40205e-06
9.58213e-07
9.66227e-07
9.8931e-07
1.01106e-06
1.0078e-06
9.91676e-07
1.00134e-06
1.04145e-06
1.077e-06
1.10765e-06
1.12139e-06
1.13301e-06
1.20006e-06
1.28315e-06
1.25315e-06
1.22877e-06
1.30546e-06
1.35689e-06
1.34858e-06
1.33886e-06
1.35903e-06
1.3933e-06
1.41291e-06
1.41697e-06
1.43271e-06
9.60396e-07
9.72058e-07
9.9596e-07
1.0175e-06
1.01266e-06
9.97652e-07
1.01217e-06
1.05354e-06
1.08796e-06
1.12111e-06
1.13775e-06
1.15667e-06
1.23366e-06
1.30519e-06
1.25989e-06
1.24966e-06
1.33516e-06
1.38267e-06
1.37224e-06
1.36385e-06
1.3864e-06
1.42386e-06
1.44654e-06
1.45124e-06
1.46584e-06
9.63861e-07
9.7826e-07
1.00286e-06
1.02453e-06
1.01839e-06
1.00494e-06
1.02437e-06
1.06637e-06
1.10002e-06
1.13598e-06
1.15613e-06
1.18373e-06
1.26927e-06
1.32485e-06
1.26813e-06
1.27427e-06
1.36664e-06
1.40981e-06
1.39777e-06
1.39119e-06
1.41661e-06
1.45757e-06
1.48327e-06
1.48839e-06
1.50167e-06
9.684e-07
9.8456e-07
1.01017e-06
1.03242e-06
1.0251e-06
1.0136e-06
1.03786e-06
1.07994e-06
1.11338e-06
1.15235e-06
1.17676e-06
1.21464e-06
1.30642e-06
1.3424e-06
1.27864e-06
1.30233e-06
1.39969e-06
1.43854e-06
1.42549e-06
1.42098e-06
1.44929e-06
1.49399e-06
1.52327e-06
1.52904e-06
1.54032e-06
9.73739e-07
9.90875e-07
1.01821e-06
1.04142e-06
1.03288e-06
1.02378e-06
1.05269e-06
1.09423e-06
1.12804e-06
1.1704e-06
1.2003e-06
1.24987e-06
1.34424e-06
1.35786e-06
1.29217e-06
1.33407e-06
1.4345e-06
1.46877e-06
1.45505e-06
1.45306e-06
1.48481e-06
1.53346e-06
1.56644e-06
1.5733e-06
1.58257e-06
9.79667e-07
9.97287e-07
1.0274e-06
1.05172e-06
1.04181e-06
1.03557e-06
1.06876e-06
1.10939e-06
1.14425e-06
1.19042e-06
1.22713e-06
1.28941e-06
1.38207e-06
1.37208e-06
1.30934e-06
1.36906e-06
1.47077e-06
1.50085e-06
1.48712e-06
1.48779e-06
1.52282e-06
1.57564e-06
1.61296e-06
1.62141e-06
1.62864e-06
9.86047e-07
1.00411e-06
1.03811e-06
1.06336e-06
1.05197e-06
1.04911e-06
1.08608e-06
1.12543e-06
1.16204e-06
1.21278e-06
1.25807e-06
1.33323e-06
1.41895e-06
1.38548e-06
1.33058e-06
1.40744e-06
1.50889e-06
1.53478e-06
1.52149e-06
1.52525e-06
1.56381e-06
1.62081e-06
1.66295e-06
1.67384e-06
1.67915e-06
9.9282e-07
1.01173e-06
1.05061e-06
1.07637e-06
1.06341e-06
1.06439e-06
1.10452e-06
1.14256e-06
1.18179e-06
1.23793e-06
1.29344e-06
1.38084e-06
1.45426e-06
1.39922e-06
1.35628e-06
1.44867e-06
1.54854e-06
1.57088e-06
1.55876e-06
1.56585e-06
1.60795e-06
1.6691e-06
1.71616e-06
1.73029e-06
1.73472e-06
1.00002e-06
1.02061e-06
1.06509e-06
1.09064e-06
1.0762e-06
1.0815e-06
1.12411e-06
1.16089e-06
1.20358e-06
1.26627e-06
1.33396e-06
1.43183e-06
1.48743e-06
1.41388e-06
1.38656e-06
1.49289e-06
1.59024e-06
1.60939e-06
1.59889e-06
1.60955e-06
1.65525e-06
1.72086e-06
1.77348e-06
1.79141e-06
1.79517e-06
1.00777e-06
1.03109e-06
1.0816e-06
1.10613e-06
1.09042e-06
1.10035e-06
1.14474e-06
1.18069e-06
1.22788e-06
1.29838e-06
1.37974e-06
1.48504e-06
1.51815e-06
1.43077e-06
1.42175e-06
1.53977e-06
1.63377e-06
1.65047e-06
1.64234e-06
1.65704e-06
1.70643e-06
1.77611e-06
1.83416e-06
1.85699e-06
1.86157e-06
1.01624e-06
1.04357e-06
1.10015e-06
1.1227e-06
1.10613e-06
1.12103e-06
1.16654e-06
1.20214e-06
1.25482e-06
1.33473e-06
1.43122e-06
1.5398e-06
1.54657e-06
1.45044e-06
1.46165e-06
1.58937e-06
1.67978e-06
1.69467e-06
1.68915e-06
1.70781e-06
1.76116e-06
1.83551e-06
1.89947e-06
1.92742e-06
1.93359e-06
1.02563e-06
1.05829e-06
1.12062e-06
1.1403e-06
1.12348e-06
1.14342e-06
1.18941e-06
1.22552e-06
1.28498e-06
1.37607e-06
1.48822e-06
1.59464e-06
1.57301e-06
1.47415e-06
1.50664e-06
1.64167e-06
1.72803e-06
1.74186e-06
1.73978e-06
1.763e-06
1.82028e-06
1.89883e-06
1.96888e-06
2.00309e-06
2.01202e-06
1.0362e-06
1.07553e-06
1.14289e-06
1.15882e-06
1.14248e-06
1.16756e-06
1.21361e-06
1.25107e-06
1.31852e-06
1.42292e-06
1.55077e-06
1.64897e-06
1.59833e-06
1.50234e-06
1.55622e-06
1.6967e-06
1.77931e-06
1.79279e-06
1.79421e-06
1.82201e-06
1.88367e-06
1.96684e-06
2.04304e-06
2.08424e-06
2.09763e-06
1.04824e-06
1.0954e-06
1.16677e-06
1.17833e-06
1.16335e-06
1.19332e-06
1.239e-06
1.279e-06
1.35617e-06
1.47612e-06
1.61822e-06
1.70141e-06
1.62326e-06
1.53592e-06
1.61081e-06
1.7547e-06
1.83346e-06
1.84732e-06
1.85296e-06
1.88566e-06
1.95179e-06
2.03983e-06
2.12249e-06
2.17103e-06
2.18988e-06
1.062e-06
1.11801e-06
1.19216e-06
1.19883e-06
1.18609e-06
1.22072e-06
1.26592e-06
1.30965e-06
1.39819e-06
1.53583e-06
1.68976e-06
1.75173e-06
1.64927e-06
1.57527e-06
1.66982e-06
1.81553e-06
1.89097e-06
1.90604e-06
1.91634e-06
1.95416e-06
2.02482e-06
2.11759e-06
2.20704e-06
2.26443e-06
2.29083e-06
1.07778e-06
1.14346e-06
1.21889e-06
1.22054e-06
1.21094e-06
1.24964e-06
1.29421e-06
1.34317e-06
1.44536e-06
1.60263e-06
1.76415e-06
1.79911e-06
1.67711e-06
1.62083e-06
1.73355e-06
1.8798e-06
1.95215e-06
1.9689e-06
1.98411e-06
2.02742e-06
2.10336e-06
2.20151e-06
2.29757e-06
2.36369e-06
2.39949e-06
1.09587e-06
1.17185e-06
1.24699e-06
1.24356e-06
1.23782e-06
1.28e-06
1.32432e-06
1.38013e-06
1.49811e-06
1.67606e-06
1.83983e-06
1.84387e-06
1.70843e-06
1.67292e-06
1.80146e-06
1.9469e-06
2.01684e-06
2.03639e-06
2.05726e-06
2.1061e-06
2.18692e-06
2.29054e-06
2.39419e-06
2.47042e-06
2.51728e-06
1.11647e-06
1.20275e-06
1.27612e-06
1.26801e-06
1.2668e-06
1.31163e-06
1.35599e-06
1.42043e-06
1.55684e-06
1.75577e-06
1.91508e-06
1.88575e-06
1.74361e-06
1.73124e-06
1.87349e-06
2.01748e-06
2.08557e-06
2.10809e-06
2.13484e-06
2.19e-06
2.27644e-06
2.3856e-06
2.49683e-06
2.58439e-06
2.64499e-06
1.14041e-06
1.23648e-06
1.30708e-06
1.29487e-06
1.29845e-06
1.34517e-06
1.39059e-06
1.4661e-06
1.62367e-06
1.84235e-06
1.98964e-06
1.92689e-06
1.78518e-06
1.79705e-06
1.95005e-06
2.09147e-06
2.1583e-06
2.1846e-06
2.21753e-06
2.27903e-06
2.37135e-06
2.4864e-06
2.6053e-06
2.70462e-06
2.7811e-06
1.16537e-06
1.26947e-06
1.33554e-06
1.32021e-06
1.32886e-06
1.37643e-06
1.42339e-06
1.51118e-06
1.69064e-06
1.92462e-06
2.0522e-06
1.95966e-06
1.82634e-06
1.86292e-06
2.02425e-06
2.1629e-06
2.22976e-06
2.26121e-06
2.30115e-06
2.36932e-06
2.46783e-06
2.58974e-06
2.71824e-06
2.83167e-06
2.9259e-06
1.2045e-06
1.31785e-06
1.38093e-06
1.3634e-06
1.37689e-06
1.42559e-06
1.47731e-06
1.5855e-06
1.79747e-06
2.04934e-06
2.15054e-06
2.02582e-06
1.90196e-06
1.96148e-06
2.12863e-06
2.26312e-06
2.32802e-06
2.36159e-06
2.40576e-06
2.4785e-06
2.58115e-06
2.70748e-06
2.84392e-06
2.97272e-06
3.08962e-06
1.19993e-06
1.30697e-06
1.35717e-06
1.33992e-06
1.3574e-06
1.40334e-06
1.4549e-06
1.56225e-06
1.7671e-06
1.99538e-06
2.0571e-06
1.94041e-06
1.85637e-06
1.9376e-06
2.10297e-06
2.23161e-06
2.30108e-06
2.34919e-06
2.41022e-06
2.49858e-06
2.61477e-06
2.75253e-06
2.89993e-06
3.04174e-06
3.17435e-06
1.46032e-06
1.62763e-06
1.68165e-06
1.65035e-06
1.67145e-06
1.72098e-06
1.80274e-06
2.0261e-06
2.40043e-06
2.7219e-06
2.76188e-06
2.51229e-06
2.36868e-06
2.46126e-06
2.62388e-06
2.74232e-06
2.78973e-06
2.79707e-06
2.81503e-06
2.86605e-06
2.95334e-06
3.07363e-06
3.22351e-06
3.39854e-06
3.58865e-06
1.03952e-06
1.06023e-06
1.07669e-06
1.10184e-06
1.14065e-06
1.18665e-06
1.23813e-06
1.29391e-06
1.34432e-06
1.374e-06
1.37866e-06
1.38221e-06
1.42865e-06
1.50889e-06
1.60128e-06
1.69977e-06
1.80421e-06
1.92286e-06
2.06626e-06
2.23784e-06
2.43601e-06
2.64884e-06
2.84487e-06
2.98613e-06
3.09202e-06
0.000636453
3.26354e-06
8.2009e-07
8.15646e-07
8.1779e-07
8.20433e-07
8.22894e-07
8.25314e-07
8.27751e-07
8.30247e-07
8.32838e-07
8.35556e-07
8.38442e-07
8.41545e-07
8.44916e-07
8.48608e-07
8.52677e-07
8.57194e-07
8.62235e-07
8.67893e-07
8.74286e-07
8.81556e-07
8.89848e-07
8.99258e-07
9.09753e-07
9.21131e-07
9.33055e-07
9.45157e-07
9.57153e-07
9.68847e-07
9.80055e-07
9.90543e-07
1.0001e-06
1.00855e-06
1.0156e-06
1.02112e-06
1.02466e-06
1.02549e-06
1.02261e-06
1.01526e-06
1.00409e-06
9.90777e-07
9.76833e-07
9.63224e-07
9.50279e-07
9.37986e-07
9.26345e-07
9.15601e-07
9.06148e-07
8.98143e-07
8.91138e-07
8.84608e-07
8.78296e-07
8.7219e-07
8.66378e-07
8.61023e-07
8.56283e-07
8.5234e-07
8.49384e-07
8.47532e-07
8.46756e-07
8.46954e-07
8.48069e-07
8.50108e-07
8.53133e-07
8.5741e-07
8.63423e-07
8.71893e-07
8.84125e-07
9.02829e-07
9.33301e-07
9.84772e-07
1.07472e-06
1.22656e-06
1.46315e-06
1.80711e-06
2.2679e-06
2.82861e-06
3.4201e-06
3.89173e-06
4.12871e-06
4.09288e-06
3.82408e-06
3.46342e-06
3.17303e-06
3.0524e-06
3.10479e-06
3.18496e-06
3.20051e-06
3.19155e-06
3.19832e-06
3.23129e-06
3.28795e-06
3.36602e-06
3.45134e-06
3.50523e-06
3.47597e-06
3.35233e-06
3.20846e-06
7.06411e-06
1.86356e-08
8.3213e-07
8.06129e-07
8.08915e-07
8.10768e-07
8.12536e-07
8.14229e-07
8.15871e-07
8.17478e-07
8.19056e-07
8.20603e-07
8.22127e-07
8.2364e-07
8.25157e-07
8.26677e-07
8.28199e-07
8.29716e-07
8.3122e-07
8.32698e-07
8.34133e-07
8.35498e-07
8.36771e-07
8.37951e-07
8.39109e-07
8.40419e-07
8.42169e-07
8.44702e-07
8.48346e-07
8.53389e-07
8.60098e-07
8.68763e-07
8.79665e-07
8.92993e-07
9.08865e-07
9.27451e-07
9.49105e-07
9.74342e-07
1.00348e-06
1.03606e-06
1.07013e-06
1.10257e-06
1.12971e-06
1.14902e-06
1.15993e-06
1.16172e-06
1.15314e-06
1.13375e-06
1.10626e-06
1.07715e-06
1.05264e-06
1.0339e-06
1.01826e-06
1.00242e-06
9.84302e-07
9.64328e-07
9.41967e-07
9.168e-07
8.91283e-07
8.67892e-07
8.47558e-07
8.31352e-07
8.19639e-07
8.12079e-07
8.06647e-07
8.01584e-07
7.97115e-07
7.95161e-07
7.96779e-07
8.15238e-07
8.81068e-07
9.36767e-07
9.97474e-07
1.12848e-06
1.39693e-06
2.05342e-06
3.05974e-06
4.45321e-06
6.44417e-06
8.58028e-06
1.06471e-05
1.2433e-05
1.32272e-05
1.25716e-05
1.08594e-05
9.04745e-06
8.08262e-06
7.77535e-06
7.35474e-06
6.74814e-06
6.15734e-06
5.66671e-06
5.25591e-06
4.92251e-06
4.65954e-06
4.42847e-06
4.20313e-06
3.98778e-06
3.7851e-06
1.2842e-05
4.387e-07
8.09086e-07
8.04478e-07
8.05683e-07
8.06975e-07
8.08217e-07
8.09422e-07
8.1061e-07
8.11791e-07
8.12976e-07
8.14174e-07
8.15401e-07
8.16683e-07
8.18045e-07
8.19503e-07
8.2108e-07
8.22803e-07
8.24697e-07
8.26795e-07
8.29137e-07
8.31774e-07
8.34762e-07
8.38154e-07
8.41981e-07
8.46247e-07
8.50942e-07
8.56055e-07
8.61585e-07
8.67566e-07
8.74056e-07
8.81129e-07
8.88877e-07
8.97429e-07
9.06972e-07
9.17722e-07
9.29887e-07
9.43656e-07
9.59276e-07
9.77145e-07
9.97569e-07
1.02025e-06
1.04366e-06
1.06426e-06
1.07895e-06
1.08687e-06
1.08871e-06
1.08302e-06
1.06715e-06
1.04146e-06
1.01391e-06
9.91699e-07
9.7558e-07
9.6287e-07
9.50597e-07
9.37642e-07
9.24391e-07
9.08614e-07
8.90815e-07
8.73918e-07
8.58519e-07
8.45398e-07
8.35499e-07
8.29359e-07
8.26164e-07
8.24467e-07
8.23352e-07
8.24254e-07
8.27124e-07
8.35736e-07
8.69743e-07
9.66372e-07
1.05938e-06
1.12234e-06
1.28407e-06
1.73547e-06
2.35229e-06
3.07224e-06
3.99059e-06
5.16077e-06
6.42754e-06
7.69857e-06
8.5974e-06
8.57212e-06
7.65076e-06
6.54767e-06
5.852e-06
5.66126e-06
5.48005e-06
5.16048e-06
4.82936e-06
4.56145e-06
4.34594e-06
4.1808e-06
4.04465e-06
3.88876e-06
3.69277e-06
3.48813e-06
3.31475e-06
1.48743e-05
4.9241e-07
8.07205e-07
8.0233e-07
8.02992e-07
8.0387e-07
8.04717e-07
8.05545e-07
8.06374e-07
8.07211e-07
8.08064e-07
8.0894e-07
8.0985e-07
8.1082e-07
8.11871e-07
8.13011e-07
8.1425e-07
8.15608e-07
8.171e-07
8.18746e-07
8.20569e-07
8.22596e-07
8.24865e-07
8.27415e-07
8.30284e-07
8.33507e-07
8.37129e-07
8.41222e-07
8.45862e-07
8.51133e-07
8.57124e-07
8.63936e-07
8.71678e-07
8.80462e-07
8.90402e-07
9.01622e-07
9.14269e-07
9.28514e-07
9.44538e-07
9.62563e-07
9.82896e-07
1.00582e-06
1.03128e-06
1.05758e-06
1.07977e-06
1.09454e-06
1.10185e-06
1.10219e-06
1.0938e-06
1.07311e-06
1.04444e-06
1.01746e-06
9.96963e-07
9.81317e-07
9.67654e-07
9.53271e-07
9.39161e-07
9.23261e-07
9.04084e-07
8.85035e-07
8.67559e-07
8.5192e-07
8.39406e-07
8.31016e-07
8.2598e-07
8.22788e-07
8.20092e-07
8.19668e-07
8.21336e-07
8.27124e-07
8.51408e-07
9.32391e-07
1.03182e-06
1.10158e-06
1.2119e-06
1.59755e-06
2.234e-06
3.03712e-06
4.05293e-06
5.31228e-06
6.61907e-06
7.91271e-06
8.87108e-06
8.98016e-06
8.1228e-06
6.93627e-06
6.11156e-06
5.88295e-06
5.7015e-06
5.35441e-06
4.9819e-06
4.67362e-06
4.42131e-06
4.22094e-06
4.05075e-06
3.85762e-06
3.62424e-06
3.39495e-06
3.21791e-06
1.66426e-05
5.44024e-07
8.04713e-07
8.01199e-07
8.01434e-07
8.02068e-07
8.02684e-07
8.03293e-07
8.03921e-07
8.04575e-07
8.05265e-07
8.05997e-07
8.06777e-07
8.07627e-07
8.08574e-07
8.09624e-07
8.10786e-07
8.1208e-07
8.1352e-07
8.15124e-07
8.16913e-07
8.18916e-07
8.21165e-07
8.23701e-07
8.26567e-07
8.29791e-07
8.33401e-07
8.3744e-07
8.41964e-07
8.47033e-07
8.52723e-07
8.59121e-07
8.66329e-07
8.74454e-07
8.8362e-07
8.93968e-07
9.05661e-07
9.18881e-07
9.33812e-07
9.50664e-07
9.69656e-07
9.91029e-07
1.01467e-06
1.04061e-06
1.06575e-06
1.08507e-06
1.09661e-06
1.10079e-06
1.09709e-06
1.08249e-06
1.05682e-06
1.02852e-06
1.00537e-06
9.8793e-07
9.73599e-07
9.5919e-07
9.45393e-07
9.30766e-07
9.12554e-07
8.93271e-07
8.75317e-07
8.58776e-07
8.44739e-07
8.34873e-07
8.28748e-07
8.24909e-07
8.21586e-07
8.20445e-07
8.21441e-07
8.25251e-07
8.40725e-07
9.00849e-07
1.00821e-06
1.07771e-06
1.14381e-06
1.42301e-06
1.96975e-06
2.67216e-06
3.53258e-06
4.60539e-06
5.74442e-06