/*--------------------------------*- C++ -*----------------------------------*\
  =========                 |
  \\      /  F ield         | OpenFOAM: The Open Source CFD Toolbox
   \\    /   O peration     | Website:  https://openfoam.org
    \\  /    A nd           | Version:  9
     \\/     M anipulation  |
\*---------------------------------------------------------------------------*/
FoamFile
{
    format      ascii;
    class       volScalarField;
    location    "1500";
    object      omega;
}
// * * * * * * * * * * * * * * * * * * * * * * * * * * * * * * * * * * * * * //

dimensions      [0 0 -1 0 0 0 0];

internalField   nonuniform List<scalar> 
13354
(
98.837
98.7077
97.0858
96.0741
95.9259
96.2794
97.1406
98.4223
101.156
107.311
121.865
149.845
169.827
97.0792
99.7655
99.8988
99.4314
98.989
98.9474
99.684
100.852
103.218
109.306
124.972
153.068
166.198
94.5871
98.6394
99.742
99.9737
99.4883
99.2608
100.143
101.714
104.526
111.188
125.608
145.417
148.946
91.9651
96.1974
97.9827
98.8663
98.5536
98.2974
99.229
100.797
103.384
109.186
120.611
132.905
131.3
88.9355
92.2499
94.5231
96.072
96.2399
96.0646
96.7833
97.8018
98.7572
102.088
110.175
119.026
117.327
85.6314
88.0914
90.3397
92.2251
92.8364
92.775
93.1897
93.3701
92.5301
92.7755
97.4538
104.921
106.392
82.2128
84.0722
85.9626
87.725
88.551
88.4529
88.6164
88.281
86.2022
84.5623
87.0161
93.3144
97.0869
78.9547
80.2408
81.7321
83.2261
84.2412
84.0198
83.8294
83.1099
80.4759
78.0211
79.2693
84.574
89.1474
75.9014
76.7019
77.7752
78.9829
80.1073
79.7865
79.2667
78.3009
75.5902
72.9047
73.491
77.8095
82.6502
73.0536
73.473
74.1298
75.0241
76.0748
75.6862
74.9585
73.93
71.5056
68.9813
69.0426
72.3955
77.2856
70.3714
70.515
70.8084
71.3651
72.142
71.7728
70.8552
69.8874
68.0546
65.9103
65.5235
67.9767
72.5437
67.7893
67.8059
67.8089
68.0123
68.4513
68.1803
66.9852
66.0644
64.9785
63.3884
62.6752
64.2563
68.203
65.1931
65.2557
65.0568
64.9263
65.055
64.8504
63.3682
62.4831
62.1045
61.1361
60.2427
61.0557
64.3002
62.8064
62.7468
62.4454
62.0462
61.923
61.6772
60.0222
59.2531
59.3813
58.8875
57.9957
58.2934
60.84
60.5473
60.3811
59.9132
59.3666
59.0635
58.7544
57.1458
56.4685
56.7567
56.5085
55.7894
55.8389
57.7739
58.3702
58.1375
57.5071
56.8877
56.4961
56.1772
54.7889
54.0598
54.2301
54.0684
53.5486
53.5304
55.0027
56.2659
55.9924
55.2944
54.5891
54.1892
53.9202
52.773
51.9044
51.8714
51.7106
51.3144
51.2785
52.4194
54.2226
53.9274
53.2424
52.5164
52.0902
51.9055
50.9491
49.9592
49.7509
49.5447
49.185
49.0959
49.9686
52.2374
51.9396
51.323
50.6392
50.2017
50.0735
49.2793
48.2309
47.8975
47.6228
47.2341
47.0392
47.6587
50.3266
50.0332
49.5129
48.9087
48.4889
48.3833
47.7377
46.7018
46.2904
45.9453
45.491
45.1586
45.5271
48.4959
48.2056
47.7827
47.272
46.8912
46.8048
46.2759
45.3129
44.8697
44.4678
43.9455
43.4769
43.6092
46.7251
46.4406
46.102
45.6809
45.3552
45.3001
44.858
43.9835
43.5537
43.1234
42.5565
41.9828
41.914
44.9915
44.7208
44.4522
44.1094
43.8446
43.8331
43.4661
42.6622
42.2684
41.8409
41.2645
40.6365
40.4123
43.2903
43.043
42.83
42.5509
42.346
42.3846
42.0823
41.3341
40.9721
40.5706
40.0144
39.3767
39.044
41.6234
41.407
41.2383
41.0095
40.8587
40.9474
40.6995
39.9963
39.6529
39.2865
38.77
38.1507
37.7492
39.9929
39.8113
39.6794
39.491
39.3839
39.5162
39.314
38.6517
38.3188
37.9778
37.5131
36.9285
36.4849
38.4048
38.2558
38.151
37.9958
37.9232
38.0901
37.9239
37.3029
36.9799
36.6539
36.2366
35.6996
35.2351
36.8597
36.7384
36.653
36.523
36.477
36.6704
36.5313
35.9522
35.643
35.3281
34.9467
34.4641
33.9993
35.3543
35.2559
35.1847
35.0737
35.0478
35.2624
35.1432
34.6058
34.3135
34.0092
33.656
33.2254
32.7796
33.8885
33.8059
33.7436
33.6493
33.6418
33.8746
33.7673
33.2721
32.9997
32.7063
32.3766
31.993
31.5792
32.4624
32.3901
32.334
32.2531
32.263
32.5128
32.4123
31.9583
31.7085
31.4278
31.1197
30.7775
30.4003
31.0756
31.0104
30.96
30.891
30.9165
31.1816
31.0842
30.6706
30.4439
30.1789
29.8921
29.5866
29.2451
29.7304
29.6684
29.6219
29.5645
29.607
29.8852
29.787
29.4146
29.2106
28.961
28.6962
28.4236
28.1147
28.428
28.3673
28.3237
28.2762
28.3356
28.6259
28.5248
28.193
28.0114
27.7766
27.532
27.2884
27.0096
27.1685
27.1081
27.0681
27.0295
27.1045
27.4038
27.2976
27.0064
26.8462
26.6263
26.3994
26.1805
25.9303
26.1091
25.9534
25.8918
25.8545
25.8249
25.9163
26.2212
26.1069
25.8553
25.7155
25.5094
25.299
25.1016
24.8779
26.0089
25.8674
25.8218
25.762
25.4681
25.2583
25.1374
25.0874
24.9262
24.7812
24.7198
24.6848
24.6626
24.7704
25.0776
24.9544
24.7405
24.6194
24.4267
24.2309
24.0529
23.8541
24.7827
24.6492
24.6183
24.5416
24.2685
24.0823
23.9769
23.9347
23.7857
23.6515
23.5906
23.5594
23.5445
23.6672
23.9729
23.8397
23.662
23.5586
23.3786
23.1964
23.0351
22.8599
23.5962
23.4746
23.4532
23.3617
23.1126
22.9486
22.8573
22.8203
22.6871
22.5644
22.5046
22.4768
22.4695
22.6081
22.9071
22.764
22.6202
22.533
22.3656
22.1959
22.0499
21.8964
22.452
22.3448
22.3284
22.2264
22.002
21.8579
21.7795
21.748
21.6307
21.5181
21.4616
21.4378
21.4371
21.5915
21.8796
21.7278
21.6163
21.5429
21.3876
21.2301
21.0974
20.9633
21.3511
21.2606
21.2447
21.1365
20.9366
20.8102
20.7426
20.7179
20.6165
20.5126
20.4597
20.4405
20.4471
20.617
20.8895
20.7313
20.6489
20.5884
20.4451
20.2989
20.1776
20.061
20.2939
20.2205
20.2024
20.0925
19.9155
19.8053
19.7475
19.7302
19.6421
19.5469
19.4992
19.484
19.4983
19.6836
19.9363
19.7751
19.7185
19.6691
19.5376
19.4017
19.291
19.1899
19.366
19.2816
19.2238
19.2014
19.0939
18.9386
18.8426
18.793
18.7846
18.7076
18.6204
18.5786
18.5679
18.5899
18.7907
19.0189
18.8573
18.8253
18.7852
18.6644
18.5386
18.4368
18.3493
18.3957
18.314
18.2693
18.242
18.14
18.0042
17.9209
17.8788
17.8798
17.812
17.7327
17.6968
17.6906
17.7212
17.9364
18.1367
17.9789
17.9677
17.9358
17.8253
17.7091
17.6153
17.539
17.4652
17.3907
17.3554
17.3236
17.2297
17.1113
17.0387
17.0038
17.0144
16.954
16.8824
16.8527
16.8511
16.8913
17.1196
17.2881
17.1387
17.1458
17.1198
17.0196
16.9127
16.8256
16.7592
16.5756
16.511
16.4812
16.4461
16.3614
16.2587
16.1949
16.1674
16.1871
16.1329
16.069
16.0457
16.0483
16.099
16.3388
16.4732
16.3357
16.3581
16.3372
16.2467
16.1484
16.0677
16.0094
15.7264
15.6728
15.645
15.609
15.5336
15.4448
15.3883
15.3689
15.3968
15.3474
15.2911
15.2746
15.2817
15.3437
15.5917
15.6912
15.5693
15.6038
15.587
15.5054
15.4156
15.3407
15.2895
14.9172
14.8748
14.8461
14.8115
14.7449
14.6686
14.6178
14.6075
14.6422
14.5974
14.5486
14.5381
14.5494
14.6245
14.8773
14.9414
14.8378
14.8822
14.8683
14.7952
14.7135
14.6442
14.5986
14.1475
14.1153
14.0839
14.053
13.9943
13.9292
13.883
13.883
13.9226
13.8817
13.8404
13.8355
13.8511
13.9396
14.1934
14.2237
14.1405
14.1919
14.1802
14.1149
14.0413
13.9774
13.9361
13.4163
13.392
13.3577
13.3328
13.2811
13.2256
13.1835
13.1944
13.2371
13.1997
13.1651
13.1653
13.1854
13.2886
13.5383
13.5373
13.4757
13.5322
13.5218
13.4639
13.398
13.3391
13.3017
12.7225
12.7035
12.6673
12.6496
12.6037
12.5564
12.5185
12.5403
12.5841
12.5504
12.5221
12.5265
12.5511
12.6695
12.9103
12.8821
12.8425
12.9017
12.8922
12.8409
12.7826
12.729
12.6945
12.0643
12.0477
12.0117
12.0017
11.9607
11.92
11.8867
11.9189
11.9625
11.9322
11.9095
11.9177
11.9475
12.0815
12.3078
12.2572
12.2394
12.2995
12.2903
12.2456
12.1941
12.1455
12.114
11.44
11.4233
11.3899
11.3871
11.3503
11.3148
11.2868
11.3285
11.3704
11.3435
11.326
11.3377
11.3732
11.5227
11.7296
11.6625
11.665
11.7245
11.7154
11.6763
11.6316
11.5882
11.5594
10.8477
10.829
10.8008
10.8041
10.7708
10.7392
10.7174
10.7675
10.807
10.7833
10.7705
10.7855
10.8277
10.9916
11.1742
11.0969
11.1182
11.1755
11.1665
11.1326
11.0941
11.0559
11.0297
10.2855
10.2639
10.243
10.2509
10.2207
10.1919
10.1772
10.2339
10.2706
10.2503
10.242
10.2597
10.3096
10.4865
10.6409
10.5597
10.5975
10.6515
10.6423
10.6134
10.5807
10.5477
10.5243
9.75183
9.72764
9.71536
9.72595
9.69842
9.67185
9.66517
9.72672
9.76038
9.7433
9.73903
9.75957
9.81828
10.0054
10.1291
10.0501
10.1016
10.1516
10.1425
10.1178
10.0905
10.0628
10.042
9.24491
9.21926
9.21621
9.22803
9.20281
9.17807
9.17964
9.24453
9.27538
9.26141
9.26072
9.28394
9.3528
9.54657
9.63832
9.567
9.62945
9.67453
9.66563
9.64501
9.62271
9.60005
9.58215
8.76338
8.7381
8.74386
8.75553
8.73227
8.70968
8.71973
8.78632
8.81436
8.80333
8.80594
8.83191
8.91205
9.10831
9.16834
9.10905
9.17973
9.21979
9.21113
9.19391
9.17616
9.15881
9.14377
8.3138
8.30594
8.2832
8.29696
8.30752
8.2857
8.26553
8.28377
8.35069
8.37636
8.36827
8.37377
8.40268
8.49485
8.68873
8.71917
8.67529
8.75133
8.78609
8.77777
8.76407
8.75051
8.73778
8.72596
7.88299
7.8716
7.85334
7.87367
7.88252
7.8618
7.84476
7.8706
7.93656
7.96021
7.95483
7.96296
7.99546
8.10026
8.28642
8.29052
8.2643
8.34322
8.37285
8.36504
8.35423
8.34466
8.3365
8.32786
7.47076
7.47392
7.45945
7.44742
7.4727
7.47942
7.4595
7.44622
7.47886
7.543
7.56516
7.56227
7.57263
7.6093
7.72661
7.90015
7.88267
7.87484
7.95433
7.97896
7.97194
7.96402
7.95789
7.95399
7.94854
7.08171
7.08575
7.06886
7.06417
7.09277
7.09719
7.07795
7.069
7.10741
7.16899
7.1901
7.1895
7.202
7.24378
7.3727
7.52865
7.49505
7.50571
7.58403
7.60396
7.59755
7.59238
7.58953
7.58925
7.58717
6.71359
6.71719
6.69918
6.70229
6.73263
6.73461
6.71603
6.71194
6.75514
6.81371
6.83409
6.83546
6.84994
6.89783
7.03692
7.17142
7.12775
7.15566
7.23101
7.24686
7.24149
7.23869
7.23876
7.24175
7.24253
6.36558
6.36723
6.34981
6.36046
6.39118
6.39069
6.373
6.37404
6.42088
6.4762
6.49626
6.49949
6.51594
6.57094
6.71771
6.82779
6.78001
6.82366
6.89503
6.90697
6.90256
6.90224
6.90474
6.91034
6.91386
6.03631
6.03488
6.01992
6.0374
6.06738
6.06444
6.04796
6.05427
6.10376
6.15574
6.17564
6.18048
6.19907
6.26222
6.41353
6.49783
6.45168
6.50844
6.57482
6.5837
6.58035
6.58207
6.58665
6.59432
6.60012
5.72446
5.71958
5.70871
5.73189
5.76028
5.75499
5.74009
5.75158
5.80268
5.85141
5.87141
5.87775
5.89877
5.97089
6.1229
6.1813
6.1417
6.20931
6.27008
6.27609
6.27381
6.27738
6.28356
6.29267
6.30039
5.4287
5.42068
5.41512
5.44278
5.46894
5.46155
5.44866
5.46507
5.51686
5.56258
5.58275
5.59045
5.61441
5.69606
5.84465
5.8787
5.84939
5.92496
5.97984
5.9835
5.98216
5.98725
5.99456
6.00472
6.01419
5.14792
5.13769
5.13819
5.16907
5.19249
5.18324
5.17274
5.19379
5.24553
5.28851
5.30891
5.31794
5.34547
5.43664
5.57741
5.58996
5.57389
5.65472
5.70339
5.70499
5.70446
5.71078
5.71911
5.73006
5.74123
4.88115
4.87001
4.87679
4.90978
4.93012
4.91942
4.9117
4.93699
4.98795
5.02849
5.04918
5.05963
5.09161
5.19176
5.32049
5.31528
5.31387
5.39747
5.43988
5.43975
5.44006
5.44753
5.45676
5.46853
5.48122
4.62764
4.61719
4.62999
4.66403
4.68101
4.66927
4.66462
4.69368
4.74341
4.78193
4.80292
4.81485
4.85204
4.95993
5.07305
5.05479
5.06838
5.15224
5.18867
5.18721
5.18829
5.19703
5.20724
5.2197
5.23394
4.38686
4.3786
4.39679
4.43102
4.44447
4.43214
4.43087
4.46319
4.51124
4.54816
4.56946
4.58312
4.62645
4.73999
4.83453
4.80804
4.83604
4.9182
4.94896
4.94686
4.94912
4.95912
4.97034
4.98328
4.99857
4.15852
4.15378
4.17639
4.20989
4.21978
4.20746
4.20976
4.24482
4.2909
4.32654
4.3482
4.36378
4.41385
4.53034
4.60453
4.57463
4.61578
4.69491
4.72077
4.71846
4.72194
4.73323
4.74538
4.75877
4.77482
3.94229
3.94196
3.96789
3.99992
4.00643
3.99476
4.00077
4.03788
4.08182
4.11647
4.13841
4.15626
4.21345
4.32964
4.38305
4.35442
4.40697
4.48198
4.50365
4.50158
4.50637
4.51895
4.5319
4.54539
4.56197
3.73792
3.74228
3.77036
3.80037
3.8039
3.7934
3.8031
3.84165
3.88341
3.91732
3.9395
3.95999
4.02434
4.13678
4.17035
4.14694
4.2089
4.27915
4.29732
4.29587
4.30194
4.31555
4.32931
4.34292
4.35964
3.54497
3.55389
3.58309
3.61075
3.61185
3.60303
3.61627
3.65556
3.69511
3.72833
3.75079
3.77457
3.84581
3.95108
3.96687
3.95172
4.02089
4.086
4.10131
4.10068
4.10811
4.12272
4.13707
4.15059
4.16728
3.36296
3.37585
3.40533
3.43049
3.42986
3.42301
3.43953
3.47897
3.51645
3.54913
3.57197
3.59956
3.67684
3.77183
3.77293
3.76823
3.8424
3.90214
3.91529
3.91572
3.92427
3.9397
3.95467
3.96806
3.98444
3.19126
3.20732
3.23648
3.25932
3.25758
3.25282
3.27228
3.31129
3.34682
3.37904
3.40243
3.43462
3.51672
3.59884
3.58881
3.59559
3.67275
3.72722
3.73867
3.74024
3.74996
3.76615
3.78159
3.79483
3.81069
3.02928
3.04759
3.07606
3.09689
3.09453
3.0919
3.11389
3.15202
3.18586
3.21774
3.24202
3.27929
3.36431
3.43178
3.4147
3.43326
3.51143
3.56075
3.57112
3.57396
3.58472
3.60154
3.6173
3.63033
3.64576
2.87636
2.89597
2.92371
2.94294
2.94026
2.93968
2.9638
3.00073
3.03315
3.06474
3.09032
3.13321
3.21894
3.27076
3.25042
3.28024
3.35793
3.4025
3.41214
3.41626
3.42803
3.44542
3.46156
3.4744
3.48907
2.73188
2.75202
2.77918
2.79715
2.79427
2.79575
2.82163
2.85707
2.88832
2.9198
2.94718
2.99572
3.07954
3.11583
3.09601
3.136
3.21182
3.25202
3.2613
3.26681
3.27962
3.29739
3.31361
3.32633
3.34051
2.59517
2.61529
2.64219
2.6591
2.65607
2.65959
2.68684
2.72069
2.75103
2.78252
2.81224
2.86628
2.9456
2.96728
2.95096
2.99964
3.07265
3.10902
3.11831
3.12516
3.13882
3.15698
3.17345
3.186
3.19944
2.46572
2.48554
2.51249
2.52837
2.52524
2.53084
2.55906
2.59127
2.62098
2.65269
2.68529
2.74408
2.81636
2.8253
2.81499
2.87071
2.94016
2.97308
2.98263
2.99096
3.0055
3.02383
3.04037
3.05288
3.06573
2.34298
2.36244
2.3897
2.4045
2.40135
2.40906
2.43787
2.46851
2.49781
2.52994
2.5659
2.6284
2.69156
2.69023
2.68753
2.74843
2.81393
2.84406
2.85414
2.86378
2.87907
2.89762
2.91422
2.92666
2.93902
2.22655
2.24584
2.27356
2.28714
2.28412
2.29394
2.32295
2.35209
2.38122
2.41409
2.45381
2.51844
2.57083
2.56208
2.56802
2.6325
2.6938
2.72148
2.73228
2.7433
2.75928
2.77799
2.79466
2.80699
2.81876
2.11609
2.13548
2.1636
2.17584
2.17316
2.18504
2.21393
2.2418
2.27094
2.30483
2.34846
2.41345
2.45431
2.44116
2.4559
2.52228
2.57939
2.60523
2.6169
2.62921
2.64582
2.66455
2.68118
2.69356
2.70502
2.0113
2.03113
2.05952
2.0703
2.0682
2.08204
2.11049
2.13724
2.16658
2.2019
2.24944
2.31275
2.3419
2.32724
2.3506
2.41758
2.47062
2.49497
2.50754
2.52105
2.53827
2.55713
2.57375
2.58598
2.59706
1.91196
1.93255
1.96092
1.97019
1.96891
1.98451
2.01233
2.03823
2.06797
2.10507
2.15612
2.21577
2.23392
2.2204
2.25155
2.3179
2.3671
2.39043
2.40407
2.41878
2.43645
2.4552
2.47181
2.48417
2.49501
1.81783
1.83946
1.86747
1.87521
1.87501
1.89217
1.91917
1.94441
1.97476
2.01403
2.06795
2.12211
2.13052
2.12026
2.15819
2.2231
2.26886
2.29146
2.30602
2.32179
2.34003
2.35881
2.37528
2.38766
2.3984
1.72878
1.75159
1.77884
1.78514
1.7862
1.80461
1.83072
1.85561
1.88684
1.92854
1.98426
2.03141
2.03195
2.02664
2.07015
2.13287
2.17546
2.19768
2.21336
2.23012
2.24876
2.2675
2.28389
2.29629
2.30692
1.64459
1.66864
1.69475
1.69971
1.7022
1.7216
1.74679
1.77154
1.80385
1.84818
1.90452
1.94367
1.93843
1.93906
1.98688
2.04707
2.08696
2.10899
2.12567
2.14335
2.1624
2.18109
2.19738
2.20993
2.22063
1.56515
1.59036
1.61497
1.61879
1.62277
1.64285
1.66713
1.69203
1.72576
1.77268
1.82813
1.85874
1.85001
1.85723
1.90813
1.96547
2.003
2.0251
2.0428
2.06134
2.08083
2.09955
2.11563
2.12809
2.13894
1.49022
1.51646
1.53924
1.54209
1.5476
1.5681
1.59161
1.6169
1.65227
1.70154
1.75463
1.77686
1.76685
1.78069
1.83351
1.88796
1.92353
1.94586
1.96461
1.98389
2.00364
2.02241
2.0385
2.05105
2.06201
1.41979
1.44672
1.46749
1.46964
1.47665
1.49729
1.52013
1.54607
1.58335
1.63446
1.68371
1.69811
1.68884
1.70908
1.76287
1.81448
1.8484
1.87096
1.89068
1.9108
1.93095
1.94969
1.96565
1.97828
1.98952
1.35299
1.38017
1.39896
1.40071
1.40912
1.42974
1.45216
1.47906
1.51841
1.57063
1.61485
1.62262
1.6159
1.64199
1.69584
1.74473
1.77743
1.8005
1.8212
1.84208
1.86263
1.88148
1.89739
1.91009
1.92162
1.29317
1.32007
1.3368
1.3384
1.34803
1.36833
1.39035
1.41824
1.45949
1.51159
1.54967
1.55215
1.54916
1.58021
1.63331
1.67943
1.71092
1.73429
1.7557
1.77706
1.79777
1.8166
1.83256
1.84549
1.85726
1.22286
1.24935
1.26453
1.26645
1.27741
1.29776
1.32024
1.35037
1.39473
1.44679
1.47908
1.47833
1.4806
1.51671
1.56969
1.61449
1.64626
1.67115
1.69436
1.7173
1.73916
1.75869
1.77512
1.78855
1.80085
1.22645
1.25089
1.26346
1.26541
1.27647
1.29523
1.31613
1.34451
1.38616
1.43159
1.45334
1.44962
1.45522
1.49053
1.53727
1.57484
1.60121
1.62247
1.64261
1.66256
1.68151
1.69841
1.71292
1.72555
1.73797
0.903087
0.930171
0.941726
0.945265
0.960986
0.985131
1.01539
1.06102
1.1228
1.18172
1.21428
1.21947
1.24432
1.30267
1.36884
1.42738
1.47563
1.51648
1.55453
1.59104
1.62511
1.65486
1.67864
1.69673
1.71137
2.12576
2.12974
2.12998
2.13043
2.13114
2.12904
2.12243
2.11027
2.09096
2.06307
2.02689
1.98656
1.95014
1.91655
1.88323
1.85088
1.8201
1.79176
1.76668
1.74477
1.72638
1.71391
1.71266
1.72312
1.73834
0.0358574
1.02989
1.09705
1.1393
1.17813
1.21215
1.24241
1.26963
1.29447
1.31747
1.33912
1.35979
1.37981
1.39939
1.41872
1.43789
1.457
1.47617
1.49542
1.51483
1.53444
1.55426
1.57429
1.59444
1.61464
1.63485
1.65502
1.67509
1.69502
1.71477
1.73427
1.75345
1.77224
1.79055
1.80832
1.8255
1.84204
1.85791
1.87305
1.88747
1.90115
1.91405
1.92618
1.93753
1.94809
1.95795
1.96704
1.97545
1.98316
1.99024
1.99667
2.00255
2.00792
2.01277
2.01721
2.02124
2.02493
2.0283
2.03143
2.03445
2.03746
2.04057
2.04392
2.04753
2.05151
2.056
2.06113
2.06739
2.07564
2.08744
2.10461
2.12879
2.16241
2.20602
2.25544
2.3072
2.35649
2.39818
2.42759
2.43764
2.42859
2.40376
2.36643
2.32098
2.27248
2.22559
2.18243
2.1379
2.08959
2.04199
1.99808
1.95784
1.91996
1.88458
1.85382
1.82943
1.8077
1.78222
1.75755
3.66686
1.03352
1.11334
1.13484
1.15644
1.17438
1.18898
1.20049
1.20921
1.21538
1.21926
1.22112
1.22125
1.21983
1.2169
1.21246
1.20663
1.19949
1.19113
1.18162
1.17113
1.15983
1.14786
1.13526
1.12203
1.10817
1.09379
1.07899
1.06386
1.04856
1.03319
1.01787
1.00269
0.987705
0.972936
0.958459
0.944283
0.930507
0.917148
0.904276
0.891916
0.880092
0.86884
0.858123
0.848
0.838486
0.829584
0.821301
0.813682
0.806646
0.800157
0.794283
0.789016
0.784223
0.780008
0.776248
0.773003
0.770283
0.768069
0.766451
0.765384
0.764816
0.764729
0.765128
0.766042
0.767408
0.769267
0.771665
0.775259
0.784176
0.807281
0.827331
0.850115
0.889008
0.944891
1.04696
1.15306
1.24259
1.32766
1.39998
1.46464
1.52442
1.57152
1.59855
1.60727
1.6087
1.62537
1.65553
1.67057
1.67282
1.67753
1.69086
1.70826
1.72508
1.73839
1.7451
1.74398
1.73665
1.72496
2.45401
1.05073
1.15464
1.16995
1.18684
1.20074
1.21186
1.22045
1.22678
1.2311
1.23364
1.23465
1.23444
1.23329
1.23131
1.22848
1.22489
1.22067
1.2159
1.21066
1.20505
1.1992
1.19329
1.18742
1.18161
1.17576
1.16987
1.16397
1.15812
1.15236
1.14672
1.14125
1.13599
1.13098
1.12621
1.12165
1.11729
1.11313
1.10916
1.10541
1.10188
1.09858
1.09552
1.09266
1.09002
1.08764
1.08552
1.08372
1.08223
1.08108
1.08025
1.0797
1.07947
1.07956
1.0799
1.08052
1.08139
1.08247
1.08383
1.08549
1.08748
1.08981
1.09252
1.09558
1.09904
1.10296
1.10734
1.11206
1.11731
1.12488
1.14259
1.18344
1.21931
1.24167
1.28666
1.38807
1.48474
1.55598
1.60925
1.65586
1.69943
1.74126
1.77623
1.7973
1.80312
1.8018
1.80144
1.8102
1.8086
1.79613
1.78641
1.78565
1.78963
1.79397
1.79594
1.79272
1.78293
1.76823
1.75223
2.24887
0.965035
1.20398
1.21405
1.22594
1.23568
1.24309
1.24838
1.25178
1.25352
1.2538
1.2528
1.25076
1.24797
1.2446
1.24064
1.2361
1.23107
1.22563
1.21985
1.21378
1.20747
1.20106
1.19471
1.18851
1.18235
1.17617
1.16998
1.16383
1.15775
1.15177
1.14594
1.14031
1.13492
1.12977
1.12486
1.12015
1.11564
1.11133
1.10725
1.1034
1.09981
1.09645
1.09331
1.0904
1.08773
1.08531
1.08319
1.08143
1.08004
1.07899
1.07829
1.07793
1.0779
1.07817
1.07871
1.07952
1.08058
1.08188
1.08342
1.0852
1.08723
1.08953
1.09213
1.09506
1.0984
1.10217
1.10635
1.11104
1.1174
1.13144
1.16704
1.20655
1.23308
1.26581
1.35862
1.46821
1.55678
1.62224
1.67637
1.72291
1.76991
1.81082
1.83808
1.84715
1.84592
1.8445
1.85692
1.86033
1.85055
1.84274
1.84439
1.85113
1.85791
1.8616
1.85873
1.84791
1.83177
1.81501
2.09683
0.773338
1.25826
1.27052
1.27887
1.28616
1.29143
1.2949
1.29681
1.29736
1.29676
1.29516
1.29272
1.2897
1.28634
1.28261
1.27845
1.27397
1.26921
1.26423
1.25905
1.25372
1.24832
1.24301
1.23791
1.23294
1.22797
1.22302
1.2181
1.21325
1.20849
1.20385
1.1994
1.19516
1.19114
1.1873
1.1836
1.18004
1.17662
1.17336
1.17027
1.16736
1.16465
1.16211
1.15973
1.15751
1.15547
1.15364
1.1521
1.15091
1.15008
1.1496
1.14944
1.14958
1.14997
1.15061
1.15146
1.15254
1.15385
1.1554
1.15721
1.1593
1.16167
1.16435
1.16738
1.17081
1.1747
1.17901
1.18373
1.1896
1.20075
1.23019
1.27625
1.30518
1.32873
1.40702
1.52173
1.61916
1.68996
1.74462
1.7887
1.83476
1.87691
1.90813
1.92137
1.92274
1.91856
1.92831
1.93154
1.92012
1.9098
1.9099
1.91598
1.92217
1.92492
1.92044
1.90739
1.88919
1.87136
2.09989
0.513782
1.312
1.33557
1.34059
1.34609
1.34991
1.35213
1.35303
1.35282
1.35169
1.34979
1.34723
1.34424
1.34106
1.33768
1.334
1.33006
1.32593
1.32163
1.31717
1.31258
1.30791
1.30334
1.29897
1.29469
1.29038
1.28603
1.28168
1.27732
1.27299
1.26872
1.26456
1.26057
1.25674
1.25302
1.24939
1.24585
1.24241
1.23907
1.23586
1.23278
1.22987
1.22712
1.22452
1.22206
1.21974
1.21758
1.21563
1.21399
1.21271
1.21182
1.21129
1.21112
1.21127
1.21173
1.21245
1.21342
1.21466
1.21615
1.21792
1.21997
1.22232
1.22499
1.22801
1.23142
1.23528
1.2396
1.24432
1.24988
1.25912
1.28312
1.33084
1.36435
1.38465
1.44407
1.56167
1.66966
1.74894
1.80652
1.85087
1.89732
1.94119
1.97652
1.99479
1.99856
1.99288
2.00042
2.00469
1.99297
1.98116
1.98062
1.98691
1.99323
1.99554
1.98965
1.97461
1.95465
1.93587
2.22668
0.291767
1.36375
1.40851
1.41026
1.41439
1.4173
1.41877
1.41909
1.4185
1.41718
1.41529
1.4129
1.41021
1.40746
1.40463
1.40158
1.39834
1.39492
1.39136
1.38764
1.38377
1.37978
1.37583
1.37203
1.36827
1.36442
1.36047
1.35644
1.35235
1.34821
1.34404
1.3399
1.33584
1.33188
1.32797
1.32412
1.32032
1.3166
1.31296
1.30941
1.30596
1.30261
1.29939
1.29631
1.29339
1.29063
1.28804
1.28565
1.28356
1.28184
1.28057
1.27972
1.27929
1.27923
1.27953
1.28013
1.28103
1.28219
1.28364
1.28538
1.28741
1.28976
1.29244
1.29548
1.29891
1.30278
1.30714
1.3119
1.31731
1.32526
1.34453
1.38902
1.42986
1.45039
1.49184
1.60526
1.72265
1.81203
1.87358
1.91814
1.96393
2.0087
2.04735
2.0709
2.07762
2.07253
2.07754
2.08205
2.06969
2.05613
2.05464
2.06084
2.0672
2.06922
2.06212
2.04507
2.02329
2.0037
2.47031
0.202923
1.41448
1.4884
1.48693
1.48983
1.49223
1.4933
1.49336
1.49268
1.49144
1.48978
1.48777
1.48555
1.48336
1.48117
1.47882
1.47629
1.4736
1.47075
1.4677
1.46445
1.46103
1.4575
1.454
1.45046
1.44677
1.44291
1.43889
1.43475
1.43049
1.42614
1.42172
1.41725
1.41275
1.40825
1.4038
1.3994
1.39508
1.39085
1.38673
1.38273
1.37886
1.37513
1.37157
1.36819
1.36501
1.36202
1.35924
1.35671
1.35453
1.35282
1.3516
1.35085
1.35054
1.35064
1.3511
1.35187
1.35296
1.35435
1.35605
1.35806
1.3604
1.36309
1.36614
1.36959
1.37349
1.37787
1.38269
1.38804
1.39519
1.41069
1.4494
1.4977
1.5211
1.54876
1.64994
1.77526
1.87566
1.94311
1.98913
2.03397
2.07917
2.12038
2.14947
2.15984
2.15663
2.15879
2.16356
2.15064
2.13529
2.1329
2.13911
2.14536
2.14687
2.13867
2.12004
2.09675
2.07628
2.83077
0.258857
1.46601
1.57447
1.57001
1.57165
1.5738
1.57475
1.5748
1.57425
1.57329
1.57205
1.57057
1.56894
1.56737
1.56581
1.56412
1.56225
1.56018
1.55791
1.55539
1.55261
1.54958
1.54627
1.54265
1.53877
1.53465
1.53034
1.52586
1.52122
1.51647
1.51162
1.50671
1.50176
1.49681
1.49187
1.48696
1.48212
1.47736
1.47269
1.46814
1.46372
1.45942
1.45527
1.45128
1.44745
1.44382
1.44042
1.43724
1.43431
1.43168
1.4295
1.42785
1.42674
1.42613
1.42599
1.42626
1.42691
1.4279
1.42923
1.43087
1.43285
1.43519
1.43788
1.44095
1.44442
1.44835
1.45277
1.45766
1.46301
1.46966
1.4823
1.51504
1.56767
1.59642
1.61515
1.69697
1.82789
1.93978
2.01576
2.06439
2.10767
2.15305
2.19585
2.2299
2.24542
2.24568
2.24477
2.24898
2.23591
2.21869
2.21507
2.22113
2.22741
2.22852
2.21919
2.1991
2.17459
2.15339
3.21039
0.356845
1.52128
1.66559
1.65867
1.65891
1.66095
1.66193
1.66211
1.66182
1.66124
1.66049
1.65959
1.65859
1.65744
1.65611
1.65461
1.65289
1.65093
1.64871
1.6462
1.6434
1.6403
1.63691
1.63324
1.62929
1.62507
1.62061
1.61594
1.6111
1.60609
1.60096
1.59574
1.59046
1.58514
1.57983
1.57452
1.56928
1.5641
1.55902
1.55405
1.5492
1.54449
1.53993
1.53554
1.53131
1.52725
1.52342
1.51983
1.51649
1.51344
1.51077
1.50864
1.5071
1.50614
1.5057
1.50575
1.50623
1.5071
1.50834
1.50992
1.51187
1.51418
1.51687
1.51996
1.52346
1.52742
1.53189
1.53684
1.54224
1.54861
1.55919
1.58625
1.63861
1.67543
1.69031
1.75033
1.8813
2.00455
2.09081
2.14404
2.18547
2.23066
2.27421
2.31235
2.33402
2.33909
2.33585
2.33866
2.32518
2.30632
2.30165
2.30744
2.31346
2.31414
2.30391
2.28261
2.25698
2.23513
3.52132
0.277415
1.58482
1.75883
1.75048
1.74923
1.75102
1.75191
1.75205
1.75181
1.75135
1.75078
1.75013
1.74942
1.74862
1.7477
1.74659
1.74528
1.74369
1.74182
1.73963
1.73711
1.73424
1.73102
1.72746
1.72357
1.71937
1.71487
1.71013
1.70516
1.7
1.69467
1.68922
1.68367
1.67807
1.67244
1.6668
1.6612
1.65565
1.65019
1.64482
1.63957
1.63446
1.6295
1.6247
1.62006
1.6156
1.61134
1.60731
1.60356
1.60009
1.59695
1.59429
1.59225
1.59086
1.59008
1.58984
1.59012
1.59084
1.59196
1.59346
1.59536
1.59764
1.60032
1.60341
1.60694
1.61094
1.61544
1.62047
1.62595
1.63218
1.64137
1.66339
1.71142
1.75751
1.77308
1.81425
1.93658
2.06986
2.16844
2.22775
2.26764
2.31253
2.35602
2.39696
2.42556
2.4366
2.43224
2.43323
2.41942
2.39872
2.39275
2.39817
2.40381
2.40382
2.3927
2.37061
2.34436
2.32183
3.79462
0.0748595
1.655
1.85556
1.8455
1.8425
1.84372
1.84429
1.84424
1.84396
1.84362
1.8433
1.84299
1.8427
1.84236
1.84193
1.84134
1.84052
1.83945
1.83805
1.83631
1.83419
1.83168
1.82878
1.82549
1.82182
1.81778
1.8134
1.80871
1.80375
1.79854
1.79312
1.78752
1.78181
1.77598
1.77009
1.76416
1.75825
1.75237
1.74654
1.7408
1.73517
1.72965
1.72429
1.71908
1.71403
1.70916
1.70448
1.7
1.69579
1.69189
1.68829
1.68511
1.6825
1.68061
1.67941
1.67883
1.67883
1.67936
1.68034
1.68175
1.68358
1.68582
1.68848
1.69157
1.69511
1.69914
1.7037
1.7088
1.71438
1.72057
1.72885
1.74674
1.78927
1.84238
1.86234
1.88832
1.99391
2.13552
2.24774
2.31502
2.3545
2.3988
2.44193
2.48442
2.51957
2.53711
2.53417
2.53275
2.51834
2.49608
2.4888
2.49349
2.49855
2.49798
2.48606
2.46321
2.43652
2.41363
4.04378
0.230231
1.73375
1.95536
1.94377
1.93882
1.93919
1.93924
1.93887
1.93849
1.93823
1.93816
1.93825
1.93843
1.93867
1.93886
1.93893
1.93878
1.93836
1.93762
1.9365
1.93496
1.93298
1.93057
1.92771
1.9244
1.92067
1.91654
1.91205
1.9072
1.90205
1.89663
1.89099
1.88517
1.87919
1.87311
1.86694
1.86076
1.85457
1.84841
1.84231
1.83629
1.83038
1.82461
1.81899
1.81351
1.80823
1.80312
1.79821
1.79353
1.78916
1.7851
1.7814
1.7782
1.77572
1.77402
1.77303
1.77269
1.77297
1.77378
1.77505
1.77679
1.77898
1.7816
1.78468
1.78824
1.7923
1.7969
1.80207
1.80775
1.81397
1.82171
1.83639
1.87288
1.9287
1.95713
1.97267
2.05612
2.20222
2.3279
2.4056
2.44649
2.48996
2.53251
2.57536
2.6161
2.6402
2.6414
2.63762
2.62204
2.59824
2.58996
2.59399
2.59801
2.59644
2.58386
2.56079
2.53398
2.51069
4.27074
0.364297
1.81876
2.05901
2.04538
2.03823
2.0375
2.03684
2.03605
2.03549
2.03532
2.03556
2.03611
2.0369
2.03783
2.03878
2.03965
2.04033
2.04075
2.04081
2.04048
2.03969
2.03841
2.03664
2.03437
2.03158
2.02831
2.02457
2.02038
2.01578
2.0108
2.0055
1.99989
1.99404
1.988
1.98178
1.97544
1.96902
1.96256
1.9561
1.94967
1.94329
1.93699
1.93082
1.92477
1.91887
1.91314
1.9076
1.90224
1.89709
1.89221
1.88766
1.88346
1.87969
1.87657
1.87426
1.87277
1.87203
1.87198
1.87255
1.87366
1.87528
1.87739
1.87997
1.88303
1.88659
1.89067
1.89531
1.90055
1.90632
1.91262
1.92006
1.93242
1.96294
2.0175
2.05625
2.0672
2.12837
2.27045
2.40895
2.4996
2.54376
2.58621
2.62836
2.67029
2.71481
2.74637
2.75401
2.74801
2.73092
2.70575
2.69637
2.69961
2.70251
2.69984
2.6865
2.66342
2.63687
2.61334
4.4826
0.306137
1.90835
2.16716
2.15036
2.14076
2.13869
2.13714
2.13583
2.13511
2.13505
2.13564
2.13675
2.13825
2.14001
2.14188
2.14372
2.1454
2.14681
2.14786
2.14848
2.14861
2.14821
2.14725
2.14571
2.14359
2.14092
2.1377
2.13396
2.12973
2.12505
2.11995
2.1145
2.10871
2.10266
2.09639
2.08993
2.08334
2.07666
2.06992
2.06318
2.05647
2.0498
2.04322
2.03675
2.03041
2.02423
2.01824
2.01243
2.0068
2.00141
1.99634
1.99163
1.98729
1.98351
1.98051
1.97841
1.97718
1.97674
1.977
1.9779
1.97936
1.98136
1.98388
1.98691
1.99046
1.99455
1.99922
2.00451
2.0104
2.01681
2.02411
2.03486
2.05999
2.11109
2.15857
2.17072
2.21162
2.34039
2.49094
2.59621
2.64652
2.68795
2.72976
2.77009
2.81639
2.85601
2.87176
2.86443
2.84506
2.81874
2.80867
2.81108
2.81231
2.80817
2.79422
2.77141
2.74532
2.72175
4.67881
0.253559
2.00469
2.2794
2.25874
2.24646
2.2428
2.24022
2.23834
2.23743
2.23754
2.23856
2.24036
2.24271
2.24546
2.24839
2.25134
2.25419
2.25677
2.25896
2.26071
2.26193
2.26256
2.26257
2.26192
2.26064
2.25872
2.25617
2.25302
2.24928
2.24501
2.24025
2.23503
2.22941
2.22346
2.21721
2.2107
2.20401
2.19714
2.19018
2.18317
2.17612
2.16911
2.16216
2.15526
2.14849
2.14188
2.13542
2.12911
2.12301
2.11712
2.1115
2.10624
2.10135
2.09692
2.09319
2.09037
2.08854
2.0876
2.08748
2.0881
2.08936
2.09122
2.09364
2.09661
2.10014
2.10424
2.10894
2.11428
2.12026
2.12679
2.13405
2.14377
2.16438
2.21038
2.26347
2.28165
2.30654
2.41497
2.57375
2.69504
2.75452
2.79553
2.83717
2.87552
2.92167
2.96896
2.99367
2.98707
2.96539
2.93764
2.92688
2.92852
2.92785
2.92181
2.90717
2.88505
2.85985
2.83617
4.86213
0.375492
2.1097
2.39538
2.37056
2.35539
2.34994
2.34619
2.34367
2.3426
2.34294
2.34453
2.34711
2.35044
2.35431
2.35847
2.36272
2.36688
2.37078
2.3743
2.37734
2.37981
2.38164
2.38278
2.38321
2.38293
2.38191
2.38017
2.37775
2.37464
2.37091
2.3666
2.36176
2.35643
2.35066
2.34452
2.33803
2.33129
2.32433
2.3172
2.30995
2.30263
2.29529
2.28797
2.28068
2.27349
2.26641
2.25947
2.25268
2.24608
2.23968
2.23351
2.22766
2.22219
2.21714
2.21268
2.20906
2.20651
2.20497
2.20436
2.20461
2.20562
2.20729
2.20959
2.21248
2.21597
2.22006
2.22478
2.23016
2.23623
2.24288
2.2502
2.25929
2.27633
2.3164
2.37239
2.39891
2.41328
2.49921
2.6576
2.79534
2.86746
2.90927
2.9508
2.98748
3.03168
3.08499
3.11916
3.11602
3.09171
3.06247
3.05145
3.05234
3.04942
3.04125
3.02582
3.00431
2.98027
2.95697
5.04202
0.483538
2.22114
2.51573
2.4859
2.46761
2.46016
2.45515
2.45197
2.45079
2.45146
2.45369
2.45722
2.46168
2.46682
2.47235
2.47803
2.48367
2.48907
2.49407
2.49858
2.50245
2.50563
2.50808
2.50973
2.5106
2.51065
2.50989
2.50834
2.50602
2.50299
2.49927
2.49492