/*--------------------------------*- C++ -*----------------------------------*\
  =========                 |
  \\      /  F ield         | OpenFOAM: The Open Source CFD Toolbox
   \\    /   O peration     | Website:  https://openfoam.org
    \\  /    A nd           | Version:  9
     \\/     M anipulation  |
\*---------------------------------------------------------------------------*/
FoamFile
{
    format      ascii;
    class       volScalarField;
    location    "1500";
    object      p;
}
// * * * * * * * * * * * * * * * * * * * * * * * * * * * * * * * * * * * * * //

dimensions      [0 2 -2 0 0 0 0];

internalField   nonuniform List<scalar> 
13354
(
-0.881181
-0.9774
-0.999802
-0.92833
-0.796205
-0.660303
-0.546827
-0.448862
-0.352803
-0.253445
-0.1572
-0.0897216
-0.0922487
-0.774129
-0.884904
-0.928832
-0.893784
-0.795203
-0.675075
-0.563171
-0.463524
-0.370222
-0.281586
-0.200743
-0.136626
-0.116164
-0.694875
-0.776398
-0.819342
-0.805425
-0.739171
-0.644795
-0.548266
-0.457557
-0.373495
-0.296459
-0.227997
-0.169765
-0.141345
-0.616058
-0.651368
-0.676253
-0.671624
-0.634275
-0.570545
-0.49645
-0.420978
-0.347484
-0.277796
-0.215462
-0.164614
-0.144288
-0.565069
-0.55376
-0.547332
-0.534133
-0.507793
-0.46673
-0.414787
-0.357201
-0.297721
-0.239137
-0.185881
-0.144866
-0.133244
-0.523224
-0.480598
-0.446896
-0.419115
-0.3922
-0.361662
-0.325382
-0.284625
-0.241416
-0.197733
-0.157136
-0.126598
-0.119378
-0.475093
-0.421031
-0.372869
-0.334429
-0.304329
-0.278055
-0.251474
-0.223398
-0.19409
-0.164135
-0.135607
-0.113468
-0.107965
-0.411034
-0.360427
-0.311439
-0.270195
-0.239247
-0.216051
-0.196229
-0.177393
-0.158483
-0.138814
-0.11948
-0.104299
-0.10081
-0.332073
-0.290734
-0.249985
-0.213157
-0.184939
-0.165352
-0.151295
-0.139692
-0.128575
-0.116597
-0.104604
-0.0962432
-0.095721
-0.247086
-0.213447
-0.183032
-0.155224
-0.132863
-0.1179
-0.108965
-0.103174
-0.0981066
-0.09218
-0.0862992
-0.0842943
-0.0876407
-0.16865
-0.138207
-0.11485
-0.0965181
-0.0814301
-0.0713749
-0.0666338
-0.0652469
-0.0647179
-0.0634929
-0.0626057
-0.0660891
-0.0733811
-0.100858
-0.0757918
-0.0562747
-0.042837
-0.0334526
-0.0275778
-0.0259535
-0.0274958
-0.0300294
-0.0321788
-0.0350589
-0.0426478
-0.0531126
-0.0469103
-0.0261983
-0.0092354
0.00178348
0.00799667
0.0109456
0.0105968
0.00753461
0.00326095
-0.00107529
-0.00643683
-0.0165317
-0.028955
-0.00564312
0.0132841
0.0275771
0.0374124
0.0422731
0.0435651
0.0420401
0.0381632
0.0329993
0.0274574
0.0207827
0.00965416
-0.00352553
0.0240552
0.0418928
0.0555058
0.0643613
0.0689169
0.0696035
0.0673917
0.0632613
0.0579413
0.0520083
0.0449232
0.0338812
0.0209027
0.0441022
0.0607024
0.0742534
0.0830049
0.0874397
0.0881318
0.0861778
0.0825148
0.0776014
0.0718724
0.0650363
0.0548127
0.0427368
0.0566902
0.0718285
0.0849362
0.0941841
0.0987703
0.100017
0.0988509
0.0960141
0.091904
0.0868643
0.0807201
0.0717471
0.0610069
0.063836
0.0774261
0.0897183
0.0992454
0.104703
0.106674
0.106515
0.104665
0.101475
0.0972867
0.0920507
0.0845052
0.0753131
0.0671353
0.0791985
0.0904573
0.0998722
0.106283
0.109358
0.110158
0.109267
0.106974
0.103636
0.0993643
0.0932429
0.0856524
0.0677441
0.0783455
0.0884611
0.0973853
0.104253
0.108443
0.110158
0.110173
0.108785
0.106321
0.10303
0.0982583
0.092252
0.0664967
0.0757369
0.0846831
0.0928665
0.0996791
0.104539
0.107178
0.107981
0.107493
0.105924
0.103573
0.100011
0.0954854
0.0640152
0.0720199
0.0798428
0.0871726
0.0936026
0.0986773
0.102026
0.103594
0.103891
0.103152
0.10165
0.0990963
0.0958783
0.0607463
0.0676484
0.0744333
0.0808965
0.0867689
0.091723
0.0954334
0.0976706
0.0986204
0.0985886
0.0978401
0.0961079
0.0939988
0.0570043
0.0629379
0.0687868
0.0744213
0.0796631
0.0842878
0.0880501
0.0906989
0.0922169
0.0927209
0.0926333
0.0915824
0.0903878
0.0530142
0.0581032
0.0631266
0.0679975
0.0726038
0.0767943
0.0803982
0.0831981
0.0851146
0.0860604
0.0864846
0.0860009
0.0855425
0.0489337
0.0532931
0.0575965
0.0617864
0.0657924
0.0695142
0.0728404
0.0755988
0.0777164
0.0790017
0.079811
0.0797685
0.0798888
0.0448777
0.0486082
0.0522889
0.0558815
0.0593414
0.0626036
0.0655974
0.0681942
0.0703466
0.0718365
0.0729345
0.0732111
0.0737595
0.0409221
0.0441141
0.0472597
0.0503343
0.0533095
0.0561422
0.0587928
0.0611642
0.0632358
0.0648044
0.0660807
0.066606
0.0674146
0.0371221
0.0398541
0.0425413
0.0451689
0.0477201
0.0501652
0.0524851
0.0546069
0.0565295
0.0580789
0.0594281
0.0601341
0.0610796
0.0335132
0.035852
0.0381478
0.0403929
0.0425772
0.0446805
0.0466942
0.0485666
0.0503077
0.0517743
0.0531135
0.0539303
0.0549344
0.0301181
0.0321217
0.0340851
0.0360034
0.0378722
0.0396773
0.0414172
0.0430536
0.0446044
0.0459533
0.0472265
0.048091
0.0491038
0.0269502
0.0286677
0.0303482
0.0319887
0.0335877
0.0351355
0.0366347
0.0380561
0.0394216
0.0406389
0.0418147
0.0426764
0.0436619
0.0240144
0.025488
0.026928
0.0283324
0.0297016
0.0310291
0.0323192
0.0335495
0.0347427
0.0358267
0.0368912
0.0377162
0.0386496
0.0213099
0.022576
0.0238118
0.0250156
0.0261894
0.0273287
0.0284387
0.0295022
0.0305402
0.0314968
0.032448
0.0332164
0.0340817
0.0188318
0.0199208
0.020983
0.0220165
0.0230245
0.0240032
0.0249588
0.0258779
0.0267789
0.0276182
0.0284603
0.0291629
0.0299527
0.015609
0.0165714
0.0175092
0.0184234
0.0193126
0.0201794
0.0210217
0.0218448
0.0226392
0.0234207
0.0241545
0.0248957
0.0255295
0.0262417
0.00640636
0.00735683
0.00830156
0.00923721
0.0101606
0.0110696
0.0119614
0.0128341
0.0136867
0.0145178
0.0153265
0.0161144
0.0168806
0.0176273
0.0183534
0.0190635
0.0197503
0.0204278
0.0210683
0.0217178
0.0222844
0.0229202
0.00560372
0.0064374
0.00726364
0.00807992
0.00888371
0.00967331
0.0104467
0.0112026
0.0119401
0.0126584
0.0133569
0.0140367
0.014698
0.0153423
0.015969
0.0165825
0.0171765
0.017764
0.0183223
0.0188899
0.0193931
0.0199569
0.00484515
0.00557546
0.00629742
0.00700923
0.00770879
0.00839472
0.00906572
0.00972075
0.010359
0.0109804
0.0115843
0.0121718
0.0127431
0.0132999
0.0138413
0.0143718
0.0148863
0.0153959
0.0158822
0.0163774
0.0168221
0.0173194
0.00413555
0.00477459
0.00540503
0.00602527
0.00663397
0.00722983
0.00781199
0.00837976
0.00893256
0.00947035
0.00999299
0.0105011
0.0109952
0.0114769
0.0119452
0.0124043
0.0128502
0.0132922
0.0137156
0.0141471
0.0145387
0.0149755
0.00347789
0.00403647
0.00458653
0.00512679
0.00565614
0.00617377
0.00667889
0.00717118
0.00765016
0.0081159
0.00856839
0.00900824
0.00943589
0.00985279
0.0102583
0.0106558
0.0110424
0.0114258
0.0117943
0.0121701
0.012514
0.0128964
0.00287373
0.00336147
0.00384101
0.0043113
0.00477153
0.00522112
0.00565948
0.00608627
0.00650135
0.00690482
0.00729674
0.00767766
0.00804794
0.00840886
0.0087601
0.00910457
0.00943968
0.00977215
0.0100926
0.0104194
0.010721
0.0110547
0.00189098
0.00232337
0.00274882
0.00316654
0.00357571
0.00397568
0.00436598
0.00474631
0.00511638
0.00547606
0.00582558
0.00616509
0.00649493
0.00681561
0.00712821
0.00743247
0.00773097
0.0080216
0.00830989
0.00858849
0.00887248
0.00913638
0.00942716
0.00144888
0.00182627
0.00219709
0.00256067
0.0029164
0.00326381
0.00360253
0.00393239
0.00425317
0.00456483
0.00486767
0.00516177
0.00544752
0.00572527
0.00599606
0.00625973
0.00651837
0.00677048
0.00702052
0.00726259
0.00750924
0.00773988
0.00799281
0.00105223
0.00138122
0.00170408
0.0020203
0.00232938
0.00263103
0.00292488
0.0032109
0.00348892
0.003759
0.00402134
0.00427607
0.0045236
0.00476424
0.0049988
0.00522729
0.00545145
0.00567005
0.00588697
0.00609735
0.0063114
0.00651277
0.00673251
0.000699841
0.000986355
0.00126721
0.00154201
0.00181039
0.00207212
0.00232698
0.00257493
0.0028159
0.00304992
0.00327717
0.00349785
0.00371228
0.0039208
0.0041241
0.00432215
0.0045165
0.00470614
0.00489432
0.00507724
0.00526319
0.00543894
0.00562986
0.000390135
0.000639401
0.000883526
0.00112221
0.00135514
0.00158215
0.00180313
0.002018
0.00222683
0.00242958
0.00262648
0.00281768
0.00300355
0.00318423
0.00336046
0.00353224
0.00370082
0.0038654
0.00402875
0.00418781
0.00434934
0.00450288
0.00466878
0.000121186
0.000337813
0.000549815
0.000756933
0.000958964
0.00115579
0.0013473
0.00153348
0.0017144
0.00189006
0.00206066
0.00222633
0.00238744
0.00254415
0.00269698
0.002846
0.00299235
0.00313533
0.00327719
0.00341562
0.00355604
0.00369013
0.00383448
-0.000109382
7.86934e-05
0.000262628
0.000442255
0.000617386
0.00078795
0.000953874
0.00111516
0.00127189
0.00142409
0.00157191
0.00171549
0.00185511
0.00199099
0.00212362
0.00225293
0.00237995
0.00250424
0.00262754
0.00274801
0.00287021
0.00298739
0.00311288
-0.00030399
-0.000140907
1.85024e-05
0.000174104
0.000325775
0.000473453
0.000617122
0.000756785
0.000892484
0.00102427
0.00115231
0.00127673
0.00139778
0.0015156
0.00163064
0.00174292
0.00185325
0.00196126
0.00206849
0.00217348
0.00227985
0.00238232
0.0024916
-0.000465454
-0.000324266
-0.000186313
-5.16957e-05
7.94936e-05
0.000207217
0.000331468
0.000452255
0.000569653
0.000683692
0.000794515
0.000902233
0.00100709
0.00110921
0.00120897
0.00130635
0.00140209
0.00149596
0.00158913
0.00168049
0.00177314
0.00186266
0.00195774
-0.000596136
-0.000474168
-0.000355022
-0.000238768
-0.000125475
-1.51696e-05
9.21458e-05
0.000196474
0.000297884
0.000396419
0.000492215
0.000585388
0.000676103
0.00076448
0.000850884
0.000935352
0.00101838
0.00109984
0.00118085
0.00126034
0.00134087
0.00141913
0.00150188
-0.000698522
-0.000593391
-0.000490716
-0.000390544
-0.000292926
-0.000197881
-0.000105399
-1.54616e-05
7.20003e-05
0.00015704
0.00023973
0.000320181
0.00039859
0.000475017
0.000549721
0.000622824
0.000694818
0.000765455
0.000835692
0.000904809
0.000974801
0.00104297
0.00111491
-0.000774758
-0.00068441
-0.00059618
-0.00051011
-0.000426217
-0.000344512
-0.000264958
-0.000187551
-0.000112267
-3.90347e-05
3.22122e-05
0.000101563
0.000169177
0.000235162
0.000299745
0.000362945
0.000425185
0.000486403
0.000547339
0.000607302
0.000668046
0.000727476
0.000789855
-0.000826988
-0.000749646
-0.000674099
-0.000600372
-0.000528489
-0.000458465
-0.00039028
-0.000323927
-0.000259366
-0.000196512
-0.000135314
-7.57003e-05
-1.7539e-05
3.92207e-05
9.48131e-05
0.000149327
0.000203054
0.000255866
0.000308496
0.000360464
0.000412984
0.00046441
0.000518398
-0.000856699
-0.000790795
-0.0007264
-0.000663548
-0.000602245
-0.000542497
-0.00048427
-0.000427556
-0.000372327
-0.000318535
-0.00026614
-0.000215061
-0.000165167
-0.000116392
-6.86062e-05
-2.17579e-05
2.44991e-05
7.01057e-05
0.00011549
0.000160297
0.000205684
0.000250158
0.000296537
-0.00086604
-0.000810162
-0.000755569
-0.00070225
-0.000650215
-0.000599453
-0.000549936
-0.000501671
-0.000454644
-0.000408808
-0.000364112
-0.0003205
-0.000277883
-0.000236194
-0.000195255
-0.000155044
-0.000115386
-7.62851e-05
-3.72696e-05
1.24153e-06
4.00911e-05
7.82279e-05
0.000117961
-0.000855781
-0.000808803
-0.00076285
-0.00071792
-0.000674041
-0.000631204
-0.000589392
-0.000548612
-0.000508834
-0.000470011
-0.000432095
-0.000395055
-0.000358813
-0.000323335
-0.000288521
-0.000254281
-0.000220407
-0.000187024
-0.000153839
-0.000121041
-8.79148e-05
-5.55515e-05
-2.20924e-05
-0.000867513
-0.000827526
-0.000788364
-0.000750041
-0.000712547
-0.000675899
-0.000640094
-0.000605105
-0.000570925
-0.000537553
-0.000504958
-0.000473117
-0.000441988
-0.000411499
-0.00038159
-0.000352178
-0.000323294
-0.000294803
-0.000266679
-0.000238693
-0.000211194
-0.000183572
-0.000156519
-0.000128768
-0.000814406
-0.000781412
-0.000749087
-0.000717435
-0.000686443
-0.000656111
-0.000626407
-0.00059733
-0.000568909
-0.000541118
-0.000513928
-0.000487318
-0.000461252
-0.000435707
-0.00041067
-0.000386063
-0.000361847
-0.000337979
-0.000314572
-0.000291409
-0.00026861
-0.000245889
-0.0002239
-0.000201509
-0.000772687
-0.000745262
-0.000718341
-0.000691942
-0.000666041
-0.000640646
-0.000615765
-0.00059139
-0.000567505
-0.000544103
-0.000521147
-0.000498646
-0.000476596
-0.000454975
-0.000433743
-0.000412909
-0.000392496
-0.000372515
-0.000352869
-0.000333566
-0.000314632
-0.000296256
-0.000278049
-0.000260464
-0.000242949
-0.000683054
-0.000661022
-0.00063938
-0.000618133
-0.000597254
-0.000576748
-0.000556619
-0.00053683
-0.000517345
-0.000498185
-0.000479341
-0.000460826
-0.000442631
-0.00042477
-0.000407249
-0.000390082
-0.000373244
-0.000356767
-0.000340723
-0.000325149
-0.000309929
-0.000295206
-0.000280944
-0.000267448
-0.000254162
-0.000581776
-0.000564348
-0.000547237
-0.000530437
-0.000513903
-0.000497634
-0.000481607
-0.000465787
-0.000450159
-0.000434724
-0.000419464
-0.000404407
-0.00038957
-0.000374986
-0.000360695
-0.000346762
-0.000333212
-0.000320061
-0.000307293
-0.000295024
-0.000283318
-0.000272233
-0.000261584
-0.000251744
-0.000242492
-0.000470182
-0.00045675
-0.00044355
-0.000430579
-0.000417788
-0.000405183
-0.000392728
-0.000380362
-0.000368049
-0.000355786
-0.000343605
-0.000331566
-0.0003197
-0.000308058
-0.000296695
-0.00028565
-0.000274949
-0.000264732
-0.000255063
-0.00024596
-0.000237376
-0.000229505
-0.000222347
-0.00021602
-0.000210291
-0.000350818
-0.00034091
-0.0003312
-0.000321661
-0.000312241
-0.000302929
-0.000293648
-0.000284312
-0.000274911
-0.000265469
-0.000256025
-0.000246642
-0.000237381
-0.000228322
-0.000219552
-0.000211154
-0.00020317
-0.000195658
-0.000188676
-0.000182377
-0.000176789
-0.000171889
-0.000167664
-0.000164385
-0.000162018
-0.000227231
-0.000220316
-0.000213601
-0.00020704
-0.000200551
-0.000194109
-0.000187623
-0.000181006
-0.000174238
-0.000167338
-0.000160381
-0.000153468
-0.00014668
-0.00014011
-0.000133831
-0.000127926
-0.000122524
-0.000117726
-0.000113566
-0.000110058
-0.00010728
-0.000105343
-0.000104278
-0.0001042
-0.000105059
-0.000102879
-9.87127e-05
-9.47405e-05
-9.08864e-05
-8.70514e-05
-8.31804e-05
-7.91461e-05
-7.48698e-05
-7.0366e-05
-6.57032e-05
-6.09718e-05
-5.62714e-05
-5.17039e-05
-4.73814e-05
-4.34067e-05
-3.98714e-05
-3.68448e-05
-3.4397e-05
-3.26552e-05
-3.17261e-05
-3.16314e-05
-3.24091e-05
-3.41141e-05
-3.67721e-05
-4.03568e-05
1.3739e-05
1.54892e-05
1.70639e-05
1.85647e-05
2.00911e-05
2.17352e-05
2.36447e-05
2.58723e-05
2.8354e-05
3.09857e-05
3.36596e-05
3.62618e-05
3.86764e-05
4.07936e-05
4.24934e-05
4.36493e-05
4.41724e-05
4.39969e-05
4.30441e-05
4.12264e-05
3.85382e-05
3.49779e-05
3.05425e-05
2.52186e-05
1.91501e-05
0.000118976
0.000118433
0.000117785
0.000117143
0.000116609
0.000116299
0.000116366
0.000116814
0.00011754
0.000118416
0.000119294
0.000120042
0.000120529
0.000120636
0.000120247
0.000119257
0.000117586
0.000115174
0.000111983
0.000107973
0.000103162
9.75784e-05
9.12184e-05
8.4137e-05
7.64045e-05
0.000205131
0.000202425
0.000199665
0.000196972
0.000194459
0.000192254
0.000190487
0.000189122
0.000188015
0.000187017
0.000185965
0.000184719
0.000183147
0.000181135
0.000178577
0.000175382
0.0001715
0.000166902
0.000161569
0.000155508
0.000148755
0.000141355
0.000133344
0.000124759
0.000115758
0.000274698
0.000270009
0.000265343
0.000260829
0.000256595
0.00025278
0.000249442
0.0002465
0.000243792
0.000241154
0.000238442
0.000235511
0.000232235
0.000228506
0.000224243
0.000219383
0.000213905
0.0002078
0.00020108
0.000193773
0.000185933
0.000177614
0.000168837
0.000159671
0.000150183
0.000323055
0.000316596
0.000310228
0.000304095
0.000298324
0.000293024
0.000288193
0.000283717
0.00027943
0.000275175
0.00027081
0.00026621
0.000261262
0.000255885
0.000250022
0.000243638
0.000236732
0.000229319
0.000221433
0.00021311
0.000204405
0.000195369
0.000186041
0.000176464
0.000166744
0.000354856
0.000346874
0.00033907
0.000331615
0.000324626
0.00031814
0.000312104
0.000306385
0.000300816
0.000295257
0.000289588
0.000283706
0.000277521
0.000270968
0.000264025
0.000256685
0.00024896
0.000240875
0.00023247
0.000223791
0.000214886
0.000205799
0.000196541
0.000187164
0.000177705
0.000368174
0.000358961
0.000350019
0.000341522
0.000333553
0.000326087
0.000319023
0.000312221
0.000305531
0.000298833
0.000292033
0.000285052
0.000277834
0.000270339
0.00026256
0.000254509
0.000246206
0.000237688
0.000228992
0.000220157
0.000211218
0.000202205
0.000193132
0.000184028
0.000174942
0.000367535
0.000357342
0.000347529
0.000338273
0.000329587
0.000321385
0.000313536
0.000305902
0.000298355
0.00029081
0.0002832
0.000275473
0.000267595
0.000259549
0.000251342
0.000242999
0.000234541
0.000226
0.000217407
0.000208789
0.000200173
0.000191573
0.000182982
0.000174429
0.000165925
0.000354444
0.000343606
0.000333252
0.000323538
0.000314403
0.000305706
0.000297294
0.000289057
0.000280897
0.000272762
0.00026461
0.000256409
0.000248148
0.000239828
0.000231462
0.000223076
0.000214689
0.000206323
0.000198002
0.000189742
0.000181556
0.000173439
0.000165385
0.000157415
0.000149531
0.000332979
0.00032184
0.000311289
0.000301433
0.000292141
0.000283231
0.000274551
0.000266016
0.000257565
0.000249174
0.000240828
0.000232514
0.00022423
0.000215985
0.000207795
0.000199683
0.000191664
0.000183745
0.000175935
0.000168242
0.000160671
0.000153208
0.000145836
0.000138563
0.000131379
0.000304416
0.000293266
0.000282781
0.000273012
0.00026377
0.000254844
0.000246101
0.000237489
0.000228984
0.000220584
0.000212282
0.000204081
0.000195988
0.000188015
0.000180176
0.000172484
0.000164946
0.000157559
0.000150327
0.000143247
0.000136311
0.000129501
0.000122798
0.000116207
0.000109703
0.000269648
0.000258666
0.000248404
0.000238846
0.000229764
0.00022094
0.000212266
0.000203729
0.000195326
0.000187068
0.000178967
0.000171029
0.000163264
0.00015568
0.000148281
0.00014108
0.000134075
0.000127253
0.000120609
0.000114131
0.000107807
0.000101619
9.55447e-05
8.95765e-05
8.36982e-05
0.000231871
0.000221278
0.000211436
0.000202268
0.000193523
0.000184987
0.000176589
0.000168346
0.000160275
0.000152391
0.000144707
0.000137234
0.000129979
0.000122949
0.000116144
0.00010956
0.000103189
9.70168e-05
9.1033e-05
8.52214e-05
7.95666e-05
7.40453e-05
6.86319e-05
6.33289e-05
5.80988e-05
0.000191458
0.00018132
0.000171927
0.000163159
0.000154757
0.000146536
0.000138457
0.000130555
0.000122855
0.00011538
0.000108143
0.000101152
9.44121e-05
8.79204e-05
8.16668e-05
7.56483e-05
6.98498e-05
6.42517e-05
5.88383e-05
5.3589e-05
4.84879e-05
4.35113e-05
3.86416e-05
3.3869e-05
2.91733e-05
0.000151208
0.000141709
0.000132931
0.000124722
0.000116831
0.000109105
0.000101534
9.41645e-05
8.70286e-05
8.01433e-05
7.35199e-05
6.71591e-05
6.10636e-05
5.52248e-05
4.96307e-05
4.42712e-05
3.91226e-05
3.41666e-05
2.93896e-05
2.47693e-05
2.02867e-05
1.59186e-05
1.16463e-05
7.46463e-06
3.3398e-06
0.000111736
0.000102845
9.46284e-05
8.69232e-05
7.95041e-05
7.22515e-05
6.51767e-05
5.83266e-05
5.17257e-05
4.53926e-05
3.9337e-05
3.35595e-05
2.80477e-05
2.2789e-05
1.77693e-05
1.29733e-05
8.381e-06
3.9721e-06
-2.73366e-07
-4.37803e-06
-8.36093e-06
-1.22388e-05
-1.60284e-05
-1.97396e-05
-2.33858e-05
7.58046e-05
6.75359e-05
5.98839e-05
5.26881e-05
4.57496e-05
3.89827e-05
3.24118e-05
2.60842e-05
2.00252e-05
1.42497e-05
8.75612e-06
3.5379e-06
-1.41992e-06
-6.12622e-06
-1.06005e-05
-1.48628e-05
-1.89354e-05
-2.28386e-05
-2.65924e-05
-3.02138e-05
-3.37229e-05
-3.71382e-05
-4.0474e-05
-4.37544e-05
-4.6978e-05
4.5381e-05
3.78699e-05
3.0908e-05
2.43495e-05
1.80292e-05
1.18903e-05
5.96308e-06
2.87014e-07
-5.11858e-06
-1.02463e-05
-1.50977e-05
-1.96801e-05
-2.40104e-05
-2.81067e-05
-3.19899e-05
-3.56788e-05
-3.91923e-05
-4.25515e-05
-4.57765e-05
-4.88858e-05
-5.18971e-05
-5.48249e-05
-5.76843e-05
-6.04886e-05
-6.32701e-05
1.88394e-05
1.19715e-05
5.58718e-06
-4.37548e-07
-6.23785e-06
-1.18503e-05
-1.72444e-05
-2.23844e-05
-2.72523e-05
-3.18446e-05
-3.61685e-05
-4.02375e-05
-4.4069e-05
-4.76812e-05
-5.10927e-05
-5.43238e-05
-5.73963e-05
-6.03311e-05
-6.31465e-05
-6.58571e-05
-6.84788e-05
-7.10291e-05
-7.35152e-05
-7.59616e-05
-7.83758e-05
-1.76781e-06
-7.91211e-06
-1.3634e-05
-1.90429e-05
-2.42437e-05
-2.92558e-05
-3.40469e-05
-3.85916e-05
-4.28782e-05
-4.69077e-05
-5.06843e-05
-5.42207e-05
-5.75341e-05
-6.06467e-05
-6.35793e-05
-6.63504e-05
-6.89752e-05
-7.14725e-05
-7.38606e-05
-7.61565e-05
-7.83754e-05
-8.05299e-05
-8.26336e-05
-8.46886e-05
-8.674e-05
-2.10589e-05
-2.6598e-05
-3.1767e-05
-3.66575e-05
-4.13504e-05
-4.58577e-05
-5.01541e-05
-5.42175e-05
-5.80348e-05
-6.16071e-05
-6.49428e-05
-6.80571e-05
-7.09692e-05
-7.36962e-05
-7.62567e-05
-7.86673e-05
-8.09455e-05
-8.31119e-05
-8.51828e-05
-8.71714e-05
-8.90906e-05
-9.0953e-05
-9.27692e-05
-9.45482e-05
-9.63027e-05
-2.92101e-05
-3.40763e-05
-3.86335e-05
-4.29527e-05
-4.70926e-05
-5.10557e-05
-5.48171e-05
-5.83607e-05
-6.16792e-05
-6.47759e-05
-6.76594e-05
-7.03385e-05
-7.28292e-05
-7.51532e-05
-7.73292e-05
-7.93714e-05
-8.12942e-05
-8.31129e-05
-8.48425e-05
-8.64975e-05
-8.80925e-05
-8.96398e-05
-9.11485e-05
-9.26274e-05
-9.40898e-05
-2.85326e-05
-3.27725e-05
-3.67534e-05
-4.05275e-05
-4.4137e-05
-4.75846e-05
-5.08517e-05
-5.39262e-05
-5.67993e-05
-5.94693e-05
-6.19444e-05
-6.42384e-05
-6.63673e-05
-6.83497e-05
-7.01976e-05
-7.19215e-05
-7.35367e-05
-7.50604e-05
-7.65075e-05
-7.78893e-05
-7.92153e-05
-8.04964e-05
-8.17425e-05
-8.29658e-05
-8.41809e-05
-2.24086e-05
-2.60274e-05
-2.94349e-05
-3.26713e-05
-3.57682e-05
-3.87242e-05
-4.15202e-05
-4.41446e-05
-4.65926e-05
-4.88662e-05
-5.0972e-05
-5.29166e-05
-5.47134e-05
-5.63781e-05
-5.79245e-05
-5.93643e-05
-6.07082e-05
-6.19677e-05
-6.31555e-05
-6.42839e-05
-6.53628e-05
-6.64041e-05
-6.74161e-05
-6.84086e-05
-6.93939e-05
-7.68108e-06
-1.07255e-05
-1.36012e-05
-1.63342e-05
-1.89449e-05
-2.14331e-05
-2.37854e-05
-2.59966e-05
-2.80587e-05
-2.99672e-05
-3.17262e-05
-3.33432e-05
-3.4835e-05
-3.6217e-05
-3.74945e-05
-3.86738e-05
-3.97644e-05
-4.07802e-05
-4.17349e-05
-4.264e-05
-4.35016e-05
-4.43268e-05
-4.51242e-05
-4.59039e-05
-4.66804e-05
9.67575e-06
7.18237e-06
4.8265e-06
2.58597e-06
4.42092e-07
-1.60458e-06
-3.53821e-06
-5.34954e-06
-7.03465e-06
-8.5911e-06
-1.00259e-05
-1.13415e-05
-1.25477e-05
-1.3656e-05
-1.46732e-05
-1.56043e-05
-1.64606e-05
-1.72527e-05
-1.79884e-05
-1.86764e-05
-1.93237e-05
-1.99389e-05
-2.0532e-05
-2.11115e-05
-2.16891e-05
4.00465e-05
3.81933e-05
3.64413e-05
3.47769e-05
3.31898e-05
3.16772e-05
3.02509e-05
2.89146e-05
2.76706e-05
2.65294e-05
2.54924e-05
2.45529e-05
2.37008e-05
2.29222e-05
2.22154e-05
2.15829e-05
2.10185e-05
2.05112e-05
2.00523e-05
1.96312e-05
1.92403e-05
1.88755e-05
1.85332e-05
1.82065e-05
1.78819e-05
5.51639e-05
5.37498e-05
5.24108e-05
5.11394e-05
4.99257e-05
4.87615e-05
4.76578e-05
4.66271e-05
4.56733e-05
4.48033e-05
4.40173e-05
4.3304e-05
4.26627e-05
4.20857e-05
4.15757e-05
4.11349e-05
4.07513e-05
4.04144e-05
4.01196e-05
3.98642e-05
3.9641e-05
3.94451e-05
3.92716e-05
3.91093e-05
3.8945e-05
0.000145955
0.000146269
0.000146585
0.000146891
0.000147183
0.000147463
0.000147737
0.000148014
0.000148303
0.00014862
0.000148972
0.000149357
0.00014977
0.000150207
0.00015067
0.000151168
0.000151703
0.000152266
0.000152852
0.000153463
0.000154093
0.000154734
0.000155387
0.000156052
0.000156721
-3.53416e-05
-3.60835e-05
-3.67766e-05
-3.73607e-05
-3.78635e-05
-3.83103e-05
-3.87001e-05
-3.90388e-05
-3.93151e-05
-3.95233e-05
-3.96497e-05
-3.97114e-05
-3.97213e-05
-3.96723e-05
-3.95527e-05
-3.93592e-05
-3.90973e-05
-3.87689e-05
-3.83791e-05
-3.79372e-05
-3.74493e-05
-3.6913e-05
-3.63205e-05
-3.56975e-05
-3.50534e-05
0.000295926
0.00029995
0.000303531
0.000306857
0.000310104
0.000313429
0.000316956
0.000320766
0.000325015
0.000329721
0.000334925
0.000340636
0.000346857
0.000353528
0.000360681
0.000368315
0.00037643
0.000384917
0.000393741
0.000402905
0.000412352
0.000422057
0.000432026
0.000442338
0.000452826
-0.00340866
-0.00347281
-0.0035296
-0.00357902
-0.00362127
-0.00365688
-0.00368652
-0.00371078
-0.00373033
-0.00374589
-0.0037581
-0.00376756
-0.0037749
-0.0037807
-0.00378535
-0.00378923
-0.00379279
-0.00379634
-0.0038001
-0.00380446
-0.00380991
-0.00381703
-0.00382618
-0.00383719
-0.0038489
-1.14124e-05
-7.33105e-06
-8.16757e-06
-5.78133e-06
-5.02021e-06
-3.89786e-06
-2.9321e-06
-1.71953e-06
-3.3466e-07
1.19052e-06
2.75795e-06
4.16083e-06
5.13711e-06
5.316e-06
4.25545e-06
1.42679e-06
-3.75163e-06
-1.1907e-05
-2.36959e-05
-3.97726e-05
-6.07747e-05
-8.73061e-05
-0.000119909
-0.000159053
-0.000205118
-0.0002584
-0.000319098
-0.000387333
-0.00046312
-0.000546382
-0.000636932
-0.000734499
-0.00083873
-0.000949216
-0.00106543
-0.00118683
-0.00131276
-0.00144253
-0.00157539
-0.0017106
-0.00184735
-0.0019848
-0.00212211
-0.00225849
-0.00239312
-0.00252516
-0.00265385
-0.00277848
-0.00289837
-0.00301298
-0.00312171
-0.00322407
-0.00331971
-0.00340836
-0.0034898
-0.00356404
-0.00363097
-0.00369062
-0.00374313
-0.00378872
-0.00382772
-0.00386059
-0.00388773
-0.00390938
-0.00392586
-0.00393774
-0.00394548
-0.00394983
-0.00395179
-0.00395185
-0.00394981
-0.00394567
-0.00393978
-0.00393254
-0.00392452
-0.0039163
-0.00390829
-0.00390087
-0.00389418
-0.00388843
-0.00388381
-0.00388029
-0.00387784
-0.00387653
-0.00387624
-0.00387683
-0.00387817
-0.00388008
-0.00388222
-0.00388426
-0.00388606
-0.00388746
-0.00388817
-0.00388776
-0.00388584
-0.00388266
-0.00387869
-0.00387263
-0.00386173
-3.29866e-05
-2.7075e-05
-2.76672e-05
-2.60218e-05
-2.56919e-05
-2.47662e-05
-2.41748e-05
-2.35223e-05
-2.27792e-05
-2.18705e-05
-2.06341e-05
-1.8963e-05
-1.667e-05
-1.35914e-05
-9.53517e-06
-4.31077e-06
2.2769e-06
1.0415e-05
2.02755e-05
3.20256e-05
4.58118e-05
6.17682e-05
8.00042e-05
0.000100624
0.000123702
0.000149318
0.000177529
0.000208364
0.000241858
0.000278013
0.000316829
0.000358269
0.000402289
0.000448774
0.000497632
0.000548676
0.000601731
0.00065654
0.00071287
0.000770353
0.000828643
0.000887333
0.000946028
0.00100424
0.0010615
0.00111733
0.00117121
0.00122266
0.00127119
0.00131634
0.00135766
0.00139477
0.00142739
0.00145507
0.00147773
0.00149507
0.00150701
0.00151355
0.00151472
0.00151059
0.00150135
0.00148713
0.00146825
0.00144505
0.00141795
0.00138728
0.00135346
0.00131702
0.00127846
0.00123814
0.00119647
0.00115394
0.00111092
0.00106796
0.00102565
0.000984282
0.000944156
0.00090544
0.00086828
0.000832822
0.000799118
0.000767201
0.000737195
0.000709131
0.000683053
0.000658929
0.00063663
0.000615957
0.00059674
0.000578968
0.000562515
0.000547236
0.000532964
0.000519625
0.000507087
0.000495225
0.00048397
0.000473339
0.000463119
-4.88345e-05
-4.3223e-05
-4.3193e-05
-4.05275e-05
-3.94152e-05
-3.76874e-05
-3.62408e-05
-3.47066e-05
-3.30354e-05
-3.12343e-05
-2.92015e-05
-2.6958e-05
-2.44679e-05
-2.17402e-05
-1.87779e-05
-1.5591e-05
-1.21954e-05
-8.60271e-06
-4.82883e-06
-8.79219e-07
3.23305e-06
7.50751e-06
1.19354e-05
1.65226e-05
2.12546e-05
2.61342e-05
3.11388e-05
3.62536e-05
4.14565e-05
4.67132e-05
5.19839e-05
5.72219e-05
6.23722e-05
6.73792e-05
7.21876e-05
7.67298e-05
8.09494e-05
8.47742e-05
8.81489e-05
9.10267e-05
9.33659e-05
9.51225e-05
9.6268e-05
9.68031e-05
9.67031e-05
9.60038e-05
9.4696e-05
9.28207e-05
9.04065e-05
8.75032e-05
8.4148e-05
8.03719e-05
7.62701e-05
7.18928e-05
6.72483e-05
6.24462e-05
5.75456e-05
5.25562e-05
4.75446e-05
4.25413e-05
3.76176e-05
3.28022e-05
2.81199e-05
2.36016e-05
1.92579e-05
1.51249e-05
1.12199e-05
7.55442e-06
4.10194e-06
9.02189e-07
-2.04292e-06
-4.73689e-06
-7.14367e-06
-9.25636e-06
-1.11265e-05
-1.27575e-05
-1.41918e-05
-1.54747e-05
-1.6643e-05
-1.77239e-05
-1.87552e-05
-1.97561e-05
-2.07381e-05
-2.17087e-05
-2.26536e-05
-2.3572e-05
-2.44641e-05
-2.53322e-05
-2.61907e-05
-2.70377e-05
-2.78914e-05
-2.87272e-05
-2.95575e-05
-3.03824e-05
-3.12021e-05
-3.20056e-05
-3.27916e-05
-3.35717e-05
-3.43414e-05
-6.60626e-05
-6.07368e-05
-6.05399e-05
-5.80077e-05
-5.70145e-05
-5.55113e-05
-5.43174e-05
-5.31439e-05
-5.18792e-05
-5.05483e-05
-4.89963e-05
-4.72132e-05
-4.51185e-05
-4.26733e-05
-3.98346e-05
-3.6571e-05
-3.28655e-05
-2.87011e-05
-2.4075e-05
-1.8987e-05
-1.34531e-05
-7.48474e-06
-1.10868e-06
5.65e-06
1.27493e-05
2.01607e-05
2.78368e-05
3.57323e-05
4.37973e-05
5.19903e-05
6.02528e-05
6.85406e-05
7.68008e-05
8.49914e-05
9.30614e-05
0.000100977
0.000108692
0.000116171
0.00012337
0.000130265
0.000136819
0.000143013
0.000148819
0.000154233
0.000159232
0.000163814
0.000167983
0.000171742
0.000175093
0.000178052
0.000180625
0.000182832
0.000184688
0.000186217
0.000187445
0.000188399
0.000189095
0.000189566
0.000189809
0.000189836
0.000189666
0.000189331
0.000188846
0.000188231
0.000187505
0.000186698
0.000185816
0.000184874
0.000183878
0.000182844
0.000181788
0.000180729
0.000179653
0.000178572
0.000177503
0.000176441
0.000175396
0.000174375
0.000173374
0.000172395
0.000171431
0.000170482
0.000169547
0.000168631
0.000167741
0.000166893
0.000166085
0.000165302
0.000164533
0.000163778
0.000163039
0.000162313
0.000161594
0.000160886
0.000160182
0.00015948
0.000158779
0.000158086
0.0001574
-8.1543e-05
-7.64844e-05
-7.61156e-05
-7.36342e-05
-7.26794e-05
-7.13407e-05
-7.03042e-05
-6.93787e-05
-6.84052e-05
-6.74514e-05
-6.63649e-05
-6.51549e-05
-6.37609e-05
-6.21648e-05
-6.03472e-05
-5.82975e-05
-5.60137e-05
-5.35014e-05
-5.0779e-05
-4.7856e-05
-4.47601e-05
-4.15149e-05
-3.81557e-05
-3.47096e-05
-3.12121e-05
-2.76819e-05
-2.41505e-05
-2.06449e-05
-1.72017e-05
-1.38426e-05
-1.06021e-05
-7.49964e-06
-4.56482e-06
-1.80662e-06
7.56207e-07
3.12517e-06
5.29404e-06
7.26607e-06
9.03311e-06
1.06104e-05
1.19964e-05
1.3209e-05
1.42486e-05
1.51441e-05
1.59e-05
1.65434e-05
1.70964e-05
1.7579e-05
1.80049e-05
1.84021e-05
1.87752e-05
1.91253e-05
1.94566e-05
1.97828e-05
2.01092e-05
2.04479e-05
2.08112e-05
2.1199e-05
2.16185e-05
2.20691e-05
2.25574e-05
2.3078e-05
2.36312e-05
2.42146e-05
2.48194e-05
2.54505e-05
2.61021e-05
2.67697e-05
2.7444e-05
2.81249e-05
2.88107e-05
2.94986e-05
3.01747e-05
3.08424e-05
3.14963e-05
3.21326e-05
3.27461e-05
3.33326e-05
3.38856e-05
3.44023e-05
3.48751e-05
3.53065e-05
3.56929e-05
3.60372e-05
3.63467e-05
3.66318e-05
3.69e-05
3.71492e-05
3.73741e-05
3.75774e-05
3.77634e-05
3.79331e-05
3.80861e-05
3.82255e-05
3.83491e-05
3.84637e-05
3.85754e-05
3.86893e-05
3.88048e-05
-9.60711e-05
-9.13623e-05
-9.10324e-05
-8.88952e-05
-8.82319e-05
-8.73644e-05
-8.68114e-05
-8.64821e-05
-8.61701e-05
-8.59681e-05
-8.57221e-05
-8.54406e-05
-8.50694e-05
-8.45933e-05
-8.39951e-05
-8.32599e-05
-8.23818e-05
-8.1355e-05
-8.01945e-05
-7.89044e-05
-7.74997e-05
-7.59992e-05
-7.44287e-05
-7.27981e-05
-7.11227e-05
-6.94005e-05
-6.76359e-05