/*--------------------------------*- C++ -*----------------------------------*\
  =========                 |
  \\      /  F ield         | OpenFOAM: The Open Source CFD Toolbox
   \\    /   O peration     | Website:  https://openfoam.org
    \\  /    A nd           | Version:  9
     \\/     M anipulation  |
\*---------------------------------------------------------------------------*/
FoamFile
{
    format      ascii;
    class       surfaceScalarField;
    location    "1500";
    object      phi;
}
// * * * * * * * * * * * * * * * * * * * * * * * * * * * * * * * * * * * * * //

dimensions      [0 3 -1 0 0 0 0];

internalField   nonuniform List<scalar> 
26464
(
-0.000573071
-0.00104778
0.000777911
0.000363311
0.00135064
0.00154412
0.00162998
0.00218003
0.00175953
0.00251737
0.00175819
0.00266123
0.00167873
0.00267382
0.00156059
0.00262666
0.0014038
0.00255424
0.00118992
0.00246982
0.000907162
0.00235259
0.000561917
0.00206036
0.00126335
0.000177025
-0.00195654
-0.0017002
-0.000968311
-0.000624916
-6.48522e-05
0.000640657
0.000484342
0.00163083
0.000834037
0.00216767
0.00102476
0.00247051
0.00108504
0.00261354
0.00106819
0.00264351
0.00100147
0.00262096
0.00088531
0.00258598
0.000715363
0.00252254
0.00048966
0.00228607
0.00154884
0.000204161
-0.00274992
-0.00203361
-0.00222365
-0.00115119
-0.00149456
-8.84333e-05
-0.000790642
0.000926918
-0.000248214
0.00162525
0.000151656
0.00207064
0.000409706
0.00235549
0.000541904
0.00251131
0.00058168
0.00258118
0.000553865
0.0026138
0.000477366
0.00259903
0.000357154
0.00240628
0.00172548
0.000180522
-0.00312265
-0.00223165
-0.00281025
-0.00146359
-0.00238447
-0.000514207
-0.00186134
0.000403781
-0.0013254
0.00108931
-0.000837396
0.00158263
-0.000444168
0.00196226
-0.000164693
0.00223184
8.76193e-06
0.00240773
0.000105445
0.00251712
0.0001601
0.00254438
0.000176393
0.00238998
0.00175266
0.000149212
-0.00323959
-0.00233469
-0.00303369
-0.0016695
-0.00274766
-0.000800232
-0.00241113
6.7247e-05
-0.00204477
0.000722948
-0.00164125
0.00117912
-0.00123799
0.001559
-0.000887316
0.00188116
-0.000603122
0.00212353
-0.000364183
0.00227818
-0.000146491
0.00232669
4.11956e-05
0.0022023
0.00160929
0.000184563
-0.00320215
-0.00236237
-0.00305126
-0.00182039
-0.00282176
-0.00102973
-0.0025642
-0.000190312
-0.00231456
0.000473306
-0.00202844
0.000892992
-0.00169276
0.00122333
-0.0013383
0.0015267
-0.000992143
0.00177737
-0.000654467
0.0019405
-0.000313644
0.00198586
2.56832e-05
0.00186297
0.00137594
0.000259035
-0.00305514
-0.00229089
-0.00297212
-0.0019034
-0.00277599
-0.00122586
-0.00252556
-0.000440746
-0.00229055
0.000238301
-0.00206359
0.000666031
-0.00178707
0.000946808
-0.0014654
0.00120503
-0.00111558
0.00142756
-0.000747415
0.00157233
-0.00037036
0.00160881
-1.62833e-05
0.00150889
0.00124191
0.000117748
-0.00282071
-0.00208899
-0.00282039
-0.00190372
-0.00268255
-0.00136371
-0.00246097
-0.00066233
-0.00221827
-4.39924e-06
-0.00199686
0.000444621
-0.00175416
0.000704112
-0.00147266
0.000923531
-0.00116288
0.00111777
-0.000846225
0.00125568
-0.000549927
0.00131251
-0.000334765
0.00129373
0.00122525
-0.000318107
-0.00250122
-0.00172116
-0.00261347
-0.00179147
-0.00255304
-0.00142414
-0.00239598
-0.000819387
-0.00219476
-0.000205618
-0.00199428
0.000244137
-0.00179133
0.000501159
-0.00156691
0.000699114
-0.00133389
0.000884756
-0.00111172
0.00103351
-0.000928782
0.00112958
-0.000821519
0.00118647
0.00122184
-0.00081811
-0.00207661
-0.00103789
-0.00233755
-0.00153053
-0.00237305
-0.00138864
-0.00229133
-0.000901113
-0.00216291
-0.000334041
-0.00202317
0.000104395
-0.00188094
0.000358929
-0.00172768
0.000545858
-0.00157415
0.000731225
-0.00143323
0.00089259
-0.00132388
0.00102022
-0.00125591
0.00111851
0.00119646
-0.00123053
-0.00152149
3.93942e-05
-0.00196823
-0.00108379
-0.00213926
-0.0012176
-0.00213797
-0.000902401
-0.00207234
-0.000399678
-0.00199979
3.18527e-05
-0.00192386
0.000282994
-0.0018399
0.000461896
-0.00175078
0.000642112
-0.00166875
0.000810551
-0.00160139
0.00095286
-0.00155299
0.00107011
0.00116503
-0.00152156
-0.000760553
0.00121866
-0.0015973
-0.00024705
-0.00187686
-0.000938035
-0.00195127
-0.000827993
-0.00193279
-0.00041816
-0.00190692
5.98448e-06
-0.00188527
0.000261337
-0.00185295
0.000429576
-0.00181487
0.000604036
-0.00177842
0.000774098
-0.00174519
0.000919635
-0.00171816
0.00104308
0.0011451
-0.00169823
0.000115015
0.0020743
-0.000985025
0.00085299
-0.00160071
-0.000322352
-0.00175981
-0.000668887
-0.00176988
-0.000408097
-0.00175855
-5.34224e-06
-0.00177476
0.000277551
-0.00178846
0.000443275
-0.00178993
0.000605506
-0.00178454
0.000768704
-0.00178234
0.000917437
-0.00177873
0.00103947
0.00114699
-0.00178063
0.000695469
0.00266704
-0.000190375
0.00173883
-0.00111701
0.000604282
-0.00153357
-0.000252322
-0.00159645
-0.000345221
-0.0015826
-1.9194e-05
-0.00161001
0.000304966
-0.00166348
0.000496741
-0.00169726
0.000639287
-0.00172062
0.00079206
-0.0017417
0.000938518
-0.00176334
0.00106111
0.00116775
-0.0017841
0.00104876
0.00307814
0.000417097
0.0023705
-0.000451224
0.0014726
-0.00117194
0.000468398
-0.00141112
-0.000106049
-0.00141158
-1.87316e-05
-0.00142625
0.000319636
-0.00149258
0.000563073
-0.0015609
0.000707603
-0.00160833
0.000839495
-0.00164959
0.000979779
-0.00169023
0.00110175
0.00121063
-0.00173311
0.00125446
0.0033644
0.000810469
0.00281449
0.00015838
0.00212469
-0.000637663
0.00126444
-0.00115384
0.00041013
-0.00127006
9.74849e-05
-0.00126768
0.000317262
-0.00131311
0.000608502
-0.00139254
0.000787026
-0.0014644
0.000911353
-0.00152224
0.00103762
-0.00157832
0.00115783
0.00126826
-0.00163595
0.00136642
0.0035657
0.00105383
0.00312708
0.000586791
0.00259173
-6.20939e-05
0.00191333
-0.000741546
0.00108958
-0.00108687
0.000442806
-0.00113801
0.000368405
-0.00115256
0.000623051
-0.00121866
0.000853122
-0.00130114
0.000993841
-0.00137304
0.00110952
-0.00144036
0.00122515
0.00133712
-0.00150922
0.00141873
0.0037085
0.00119546
0.00335035
0.000862616
0.00292457
0.000382055
0.00239389
-0.00024617
0.00171781
-0.000785356
0.000981993
-0.00098901
0.000572059
-0.00101455
0.000648592
-0.00105173
0.000890297
-0.00112924
0.00107135
-0.00121026
0.00119054
-0.00128585
0.00130074
0.00141135
-0.00136008
0.00143247
0.00381366
0.00127113
0.00351168
0.00103107
0.00316463
0.000681475
0.00274348
0.000190493
0.00220879
-0.000382575
0.00155506
-0.000764991
0.000954475
-0.000873765
0.000757367
-0.000900858
0.00091739
-0.000957897
0.00112839
-0.0010404
0.00127304
-0.00112049
0.00138082
0.00149102
-0.00120015
0.00142419
0.00389233
0.00130512
0.00363075
0.00112979
0.00333996
0.000874064
0.0029992
0.000508063
0.00257479
2.24469e-05
0.00204068
-0.000457474
0.0014344
-0.00070328
0.00100317
-0.000761188
0.000975298
-0.000798242
0.00116544
-0.000868589
0.00134339
-0.0009512
0.00146343
0.00157186
-0.00103205
0.00140343
0.00395317
0.00131304
0.00372115
0.00118213
0.00347087
0.000994244
0.00318709
0.000723966
0.00284507
0.000348078
0.00241656
-0.000109811
0.00189228
-0.00047668
0.00137004
-0.000619809
0.00111843
-0.000656666
0.0012023
-0.000705809
0.00139253
-0.000782685
0.00154031
0.00165292
-0.000863744
0.00137447
0.00400185
0.00130458
0.00379104
0.00120531
0.00357014
0.00106479
0.00332761
0.000864595
0.00304526
0.000581725
0.00269943
0.000205816
0.00226819
-0.000198434
0.00177429
-0.000451837
0.00137183
-0.000527826
0.00127829
-0.000561092
0.0014258
-0.000621442
0.00160066
0.00173016
-0.000698678
0.00134193
0.00404325
0.00128619
0.00384678
0.00120972
0.00364661
0.00110273
0.0034346
0.000952604
0.00319539
0.000740643
0.00291139
0.000448609
0.00256023
8.73457e-05
0.00213555
-0.000239626
0.0016988
-0.000395623
0.00143429
-0.000435789
0.00146597
-0.000474332
0.0016392
0.00179672
-0.000540894
0.00130904
0.00407948
0.0012629
0.00389291
0.00120159
0.00370793
0.00111925
0.00351694
0.00100528
0.00330936
0.00084558
0.0030711
0.000622919
0.00278289
0.000328729
0.00242974
1.05052e-06
0.00202648
-0.000237998
0.00167334
-0.000322095
0.00155006
-0.000348813
0.00166592
0.00184382
-0.000395909
0.00127648
0.00411153
0.00123693
0.00393246
0.00118697
0.00375789
0.00112172
0.00358219
0.0010336
0.00339748
0.000912332
0.00319237
0.000743145
0.00295208
0.000512868
0.00266002
0.000227494
0.00231185
-4.88335e-05
0.00194966
-0.000203522
0.00170475
-0.00024286
0.00170526
0.00187109
-0.000270132
0.00124422
0.00414132
0.00120991
0.00396676
0.001168
0.0037998
0.00111518
0.00363502
0.00104609
0.00346656
0.000952548
0.00328591
0.000823899
0.00308073
0.000646007
0.00283791
0.000413158
0.0025447
0.000149953
0.00221287
-6.23038e-05
0.00191701
-0.000147371
0.00179033
0.00189096
-0.00016724
0.00121394
0.00416927
0.0011831
0.00399759
0.00114726
0.00383564
0.00110343
0.00367885
0.00104807
0.00352192
0.000975205
0.00335878
0.000875874
0.00318006
0.000739439
0.00297435
0.000555131
0.00272901
0.000327502
0.0024405
0.000100673
0.00214384
-4.207e-05
0.00193307
0.00193038
-8.1487e-05
0.0011852
0.00419615
0.00115636
0.00402643
0.00112488
0.00386713
0.00108844
0.00371528
0.00104357
0.00356679
0.000985956
0.00341639
0.00090867
0.00325734
0.000803463
0.00307956
0.00065957
0.0028729
0.000472676
0.00262739
0.000260927
0.00235558
8.37463e-05
0.00211025
0.00201166
2.4565e-06
0.00115763
0.00422187
0.00113175
0.00405231
0.00110402
0.00389485
0.00107235
0.00374696
0.00103517
0.00360397
0.000988633
0.00346293
0.000928267
0.00331771
0.000846416
0.00316141
0.00073489
0.00298443
0.000585693
0.00277659
0.000402436
0.00253884
0.000218934
0.00229375
0.00213237
9.82249e-05
0.00113241
0.004246
0.00110771
0.004077
0.00108226
0.0039203
0.00105536
0.00377386
0.00102414
0.00363519
0.000986455
0.00350061
0.000938554
0.00336561
0.000874826
0.00322513
0.000788052
0.0030712
0.000670619
0.00289402
0.000519401
0.00269006
0.000348719
0.00246443
0.00227502
0.000206072
0.00110778
0.00426967
0.00108511
0.00409967
0.00106235
0.00394306
0.00103818
0.00379803
0.00101185
0.00366152
0.000981106
0.00353136
0.000942562
0.00340415
0.000892702
0.00327499
0.000825383
0.00313852
0.000733653
0.00298575
0.000611832
0.00281188
0.000463744
0.00261252
0.00242087
0.000317895
0.001085
0.00429181
0.00106353
0.00412114
0.00104266
0.00396393
0.00102157
0.00381912
0.000999044
0.00368404
0.000973357
0.00355705
0.000942647
0.00343486
0.000903294
0.00331435
0.000850826
0.00319099
0.000779298
0.00305728
0.000683232
0.00290795
0.000559796
0.00273596
0.00255663
0.000424037
0.00106319
0.00431275
0.00104298
0.00414135
0.00102371
0.0039832
0.00100521
0.00383763
0.000985781
0.00370347
0.00096456
0.00357827
0.000939493
0.00345993
0.000908304
0.00334554
0.000867536
0.00323176
0.000812124
0.00311269
0.000736585
0.00298348
0.000636841
0.0028357
0.00267531
0.000518156
0.00104157
0.00433304
0.00102302
0.0041599
0.00100545
0.00400076
0.000988878
0.0038542
0.000972058
0.00372029
0.000954462
0.00359587
0.000934115
0.00348027
0.000909388
0.00337026
0.000877563
0.00326358
0.000834583
0.00315567
0.000776013
0.00304205
0.000696743
0.00291497
0.00277505
0.000597002
0.00102089
0.00435173
0.00100373
0.00417706
0.000987744
0.00401675
0.0009728
0.00386914
0.000958569
0.00373452
0.000943661
0.00361077
0.000927258
0.00349668
0.000907628
0.00338989
0.000882801
0.00328841
0.000849736
0.00318873
0.000804431
0.00308736
0.000742092
0.00297731
0.00285646
0.000660679
0.00101817
0.00456039
0.00100041
0.00436949
0.000984549
0.00419292
0.00097018
0.00403112
0.000956933
0.00388239
0.000944466
0.00374699
0.000931959
0.00362328
0.000918837
0.0035098
0.000903324
0.00340541
0.000884022
0.00330771
0.000858382
0.00321437
0.000823503
0.00312224
0.000775239
0.00302557
0.00292142
0.000710282
0.00120199
0.00666338
0.00116759
0.00634692
0.00113596
0.00604717
0.0011074
0.00576384
0.00108118
0.00549697
0.00105709
0.00524504
0.00103522
0.00500804
0.00101477
0.00478636
0.000996619
0.00457854
0.00098037
0.00438574
0.00096546
0.00420783
0.000952883
0.00404369
0.000940904
0.00389437
0.000930271
0.00375762
0.00092004
0.00363351
0.000909173
0.00352067
0.00089726
0.00341732
0.000882217
0.00332275
0.000862762
0.00323383
0.000836066
0.00314893
0.000798702
0.00306294
0.00297259
0.000747533
0.00117513
0.00670058
0.00114149
0.00638056
0.00111047
0.00607819
0.0010817
0.00579261
0.00105603
0.00552265
0.00103272
0.00526835
0.00101127
0.00502949
0.000992352
0.00480528
0.000975243
0.00459565
0.000959983
0.004401
0.000946907
0.00422091
0.000934944
0.00405566
0.00092492
0.00390439
0.000915709
0.00376683
0.000907217
0.003642
0.000898823
0.00352906
0.000889353
0.00342679
0.000877988
0.00333412
0.000863235
0.00324858
0.000843025
0.00316914
0.000814559
0.0030914
0.00301255
0.000774596
0.00114843
0.00673772
0.00111457
0.00641442
0.00108352
0.00610924
0.00105613
0.00582
0.00103069
0.00554809
0.00100813
0.00529091
0.000988103
0.00504952
0.000970246
0.00482314
0.000954237
0.00461166
0.000940377
0.00441486
0.000927951
0.00423333
0.000917673
0.00406594
0.000908533
0.00391353
0.000900871
0.00377449
0.000894062
0.00364881
0.000887371
0.00353575
0.000880303
0.00343386
0.000871883
0.00334254
0.000860805
0.00325966
0.00084579
0.00318416
0.000824126
0.00311307
0.00304325
0.000793425
0.00112103
0.00677444
0.0010873
0.00644814
0.00105714
0.00613941
0.00102948
0.00584766
0.00100549
0.00557208
0.000983813
0.00531258
0.000964723
0.00506861
0.000947551
0.00484031
0.000932848
0.00462636
0.000919896
0.00442781
0.000909073
0.00424415
0.000899879
0.00407513
0.000892296
0.00392111
0.000885876
0.00378091
0.000880374
0.00365431
0.000875422
0.0035407
0.000870169
0.00343911
0.000864278
0.00334843
0.00085642
0.00326752
0.000845208
0.00319537
0.000829286
0.00312899
0.00306688
0.00080566
0.00109261
0.00681071
0.00105964
0.00648112
0.00103003
0.00616902
0.00100375
0.00587394
0.000980337
0.00559549
0.000959416
0.0053335
0.00094094
0.00508709
0.000925417
0.00485583
0.000911787
0.00463999
0.00090015
0.00443945
0.000890346
0.00425396
0.000882303
0.00408317
0.000875872
0.00392755
0.00087086
0.00378592
0.000866663
0.00365851
0.000863055
0.00354431
0.000859744
0.00344242
0.000855697
0.00335247
0.000850303
0.00327291
0.00084251
0.00320316
0.000830755
0.00314074
0.00308442
0.000813213
0.00106371
0.00684693
0.00103167
0.00651316
0.00100288
0.00619781
0.000977134
0.00589969
0.000954313
0.00561831
0.0009348
0.00535302
0.000917797
0.00510409
0.000902941
0.00487069
0.000890425
0.00465251
0.000880213
0.00444966
0.000871529
0.00426264
0.000864925
0.00408977
0.000859585
0.00393288
0.00085556
0.00378995
0.000852638
0.00366143
0.00085047
0.00354648
0.000848529
0.00344436
0.000846311
0.00335469
0.000843158
0.00327607
0.00083814
0.00320818
0.000829919
0.00314896
0.00309735
0.000816987
0.00107023
0.00723784
0.00103483
0.00688233
0.00100317
0.00654482
0.00097504
0.00622593
0.000950516
0.00592421
0.000929051
0.00563977
0.000910273
0.00537179
0.000894317
0.00512005
0.000880981
0.00488402
0.000869758
0.00466373
0.000860169
0.00445925
0.000853122
0.00426969
0.000847314
0.00409558
0.000843279
0.00393692
0.000840471
0.00379276
0.000838795
0.00366311
0.000837901
0.00354737
0.000837256
0.00344501
0.000836773
0.00335517
0.000835413
0.00327743
0.000832683
0.00321091
0.000827481
0.00315416
0.00310651
0.000818323
0.00103967
0.0072766
0.00100546
0.00691654
0.000974691
0.00657559
0.000947681
0.00625294
0.000923875
0.00594802
0.000903361
0.00566029
0.000885832
0.00538932
0.000871007
0.00513487
0.00085877
0.00489626
0.000848455
0.00467405
0.000840705
0.004467
0.00083462
0.00427577
0.000830041
0.00410016
0.000827093
0.00393987
0.000825494
0.00379436
0.000824896
0.0036637
0.000825217
0.00354705
0.00082604
0.00344418
0.00082685
0.00335436
0.000827275
0.003277
0.000826553
0.00321163
0.000823683
0.00315703
0.00311227
0.000817922
0.00100921
0.00731422
0.000975454
0.0069503
0.000945587
0.00660545
0.000919925
0.00627861
0.0008973
0.00597064
0.000878153
0.00567943
0.000861709
0.00540577
0.000848273
0.00514831
0.000836816
0.00490772
0.000827981
0.00468288
0.000821162
0.00447382
0.0008162
0.00428073
0.000812935
0.00410343
0.00081109
0.00394171
0.000810649
0.00379479
0.000811321
0.00366303
0.000812738
0.00354563
0.000814847
0.00344207
0.000816958
0.00335225
0.000818815
0.00327514
0.000819846
0.0032106
0.000819319
0.00315756
0.00311542
0.000816166
0.000977803
0.007351
0.000945256
0.00698285
0.00091697
0.00663374
0.000891802
0.00630377
0.000870511
0.00599193
0.000852399
0.00569754
0.000837309
0.00542086
0.00082501
0.00516061
0.000815001
0.00491772
0.000807389
0.00469049
0.000801749
0.00447946
0.000798009
0.00428447
0.000795589
0.00410584
0.0007953
0.003942
0.000795826
0.00379427
0.000797621
0.00366123
0.000800268
0.00354299
0.000803524
0.00343882
0.000807075
0.0033487
0.000810317
0.0032719
0.000812891
0.00320802
0.000814244
0.0031562
0.00311608
0.000813581
0.000946406
0.00738666
0.000915128
0.00701413
0.000887654
0.00666121
0.000864179
0.00632725
0.000844225
0.00601189
0.000827038
0.00571473
0.000813375
0.00543452
0.000801821
0.00517216
0.00079359
0.00492596
0.000787126
0.00469696
0.000782608
0.00448398
0.000779908
0.00428717
0.00077908
0.00410667
0.000779358
0.00394172
0.000781247
0.00379238
0.000784107
0.00365837
0.000787924
0.00353917
0.0007922
0.00343454
0.000796869
0.00334403
0.000801523
0.00326725
0.000805689
0.00320386
0.000808815
0.00315307
0.00311443
0.000810465
0.000914715
0.00742112
0.000884511
0.00704433
0.00085836
0.00668736
0.000835801
0.00634981
0.000817134
0.00603055
0.000801672
0.00573019
0.000789053
0.00544714
0.000779241
0.00518197
0.000771536
0.00493366
0.00076623
0.00470226
0.000762984
0.00448722
0.000761719
0.00428844
0.000761982
0.00410641
0.000763584
0.00394012
0.000766484
0.00378948
0.000770597
0.00365426
0.00077542
0.00353435
0.000780925
0.00342903
0.000786761
0.00333819
0.000792638
0.00326137
0.000798235
0.00319826
0.000803199
0.00314811
0.00311054
0.00080709
0.000882404
0.00745406
0.000853535
0.0070732
0.000828946
0.00671195
0.000807985
0.00637077
0.000790291
0.00604825
0.000776177
0.00574431
0.000764665
0.00545865
0.000755941
0.0051907
0.000749745
0.00493986
0.000745942
0.00470606
0.000743919
0.00448925
0.000743662
0.00428869
0.000745102
0.00410497
0.000747818
0.0039374
0.000751856
0.00378544
0.000756893
0.00364922
0.000762904
0.00352833
0.000769515
0.00342242
0.000776521
0.00333118
0.000783657
0.00325423
0.000790812
0.0031911
0.000797578
0.00314134
0.00310438
0.000803737
0.000849969
0.00748616
0.000822593
0.00710058
0.00079929
0.00673525
0.000779654
0.0063904
0.000763617
0.00606429
0.0007503
0.00575762
0.000740461
0.00546849
0.000733165
0.00519799
0.000728389
0.00494463
0.000725517
0.00470894
0.000724748
0.00449001
0.000725461
0.00428798
0.00072797
0.00410246
0.000731942
0.00393343
0.000737073
0.00378031
0.000743284
0.00364301
0.000750348
0.00352127
0.00075803
0.00341474
0.000766227
0.00332299
0.000774837
0.00324562
0.000783526
0.00318241
0.000792321
0.00313255
0.00309614
0.000800556
0.000817548
0.00751636
0.000791439
0.00712668
0.000769396
0.00675729
0.000751392
0.00640841
0.000736456
0.00607922
0.000725086
0.00576899
0.000716001
0.00547757
0.000709924
0.00520407
0.000706018
0.00494854
0.000704666
0.00471029
0.000705185
0.00448949
0.000707222
0.00428594
0.000711082
0.0040986
0.000716082
0.00392843
0.000722326
0.00377406
0.000729575
0.00363576
0.000737768
0.00351307
0.00074672
0.00340579
0.000756287
0.00331342
0.000766339
0.00323557
0.000776833
0.00317192
0.000787469
0.00312191
0.0030856
0.000798004
0.000784407
0.00754502
0.000759878
0.00715121
0.000739488
0.00677768
0.000722483
0.00642541
0.000709203
0.0060925
0.000698943
0.00577925
0.000691706
0.00548481
0.000687044
0.00520873
0.000684429
0.00495115
0.000684047
0.00471067
0.000685612
0.00448793
0.000689325
0.00428223
0.000693888
0.00409403
0.000700143
0.00392217
0.000707558
0.00376665
0.000715962
0.00362736
0.000725325
0.00350371
0.000735616
0.00339549
0.000746651
0.00330238
0.000758514
0.00322371
0.000770835
0.00315959
0.000783424
0.00310932
0.00307302
0.000796006
0.000751035
0.00757241
0.000728175
0.00717407
0.000709063
0.00679679
0.000693785
0.00644069
0.000681899
0.00610438
0.000673098
0.00578805
0.000666985
0.00549092
0.00066329
0.00521242
0.000662624
0.00495181
0.000663575
0.00470972
0.000666453
0.00448505
0.000670601
0.00427808
0.000676686
0.00408795
0.000684217
0.00391464
0.000692763
0.0037581
0.000702503
0.00361762
0.000713263
0.00349295
0.000725058
0.0033837
0.000737827
0.00328961
0.000751395
0.00321014
0.00076569
0.0031453
0.000780242
0.00309476
0.00305868
0.000794577
0.000717055
0.00759786
0.000695765
0.00719536
0.000678397
0.00681416
0.000664509
0.00645457
0.000654075
0.00611482
0.000646391
0.00579573
0.000641853
0.00549545
0.000640131
0.00521414
0.000640164
0.00495178
0.000642517
0.00470736
0.000646473
0.00448109
0.000652381
0.00427217
0.000659564
0.00408076
0.00066819
0.00390601
0.000678109
0.00374818
0.00068927
0.00360645
0.000701616
0.0034806
0.000715079
0.00337023
0.00072967
0.00327502
0.000745169
0.00319463
0.000761262
0.0031292
0.000777429
0.00307859
0.00304317
0.000792945
0.000682784
0.00762171
0.000662915
0.00721523
0.000646878
0.00683019
0.000634766
0.00646668
0.000625796
0.00612378
0.000620038
0.00580149
0.000616521
0.00549897
0.000615851
0.00521481
0.000617578
0.00495005
0.000621289
0.00470365
0.000626727
0.00447565
0.000633521
0.00426537
0.000642361
0.00407192
0.000652048
0.00389632
0.000663529
0.00373669
0.000676286
0.00359369
0.000690396
0.00346649
0.000705863
0.00335476
0.000722418
0.00325846
0.000739699
0.00317735
0.000757271
0.00311163
0.000774412
0.00306144
0.00302753
0.000790034
0.00064715
0.00764418
0.000629271
0.00723311
0.000615068
0.00684439
0.000604389
0.00647736
0.000596645
0.00613152
0.000592214
0.00580592
0.000590791
0.00550039
0.000591545
0.00521405
0.00059463
0.00494696
0.000599178
0.0046991
0.000606112
0.00446871
0.000614554
0.00425693
0.000624249
0.00406222
0.000636222
0.00388435
0.000649081
0.00372383
0.00066378
0.00357899
0.000679934
0.00345033
0.000697305
0.00333739
0.000715655
0.00324011
0.000734413
0.00315859
0.000752881
0.00309315
0.000769876
0.00304444
0.00301316
0.000784242
0.000610771
0.00766464
0.000594682
0.00724919
0.000581923
0.00685715
0.000572789
0.00648649
0.000567081
0.00613722
0.000564141
0.00580885
0.000564153
0.00550037
0.000566271
0.00521193
0.000570496
0.00494272
0.000576902
0.00469268
0.000584542
0.00446106
0.000594867
0.0042466
0.000606614
0.00405046
0.000619553
0.0038714
0.000635004
0.00370837
0.000651745
0.00356224
0.000669964
0.0034321
0.000689219
0.00331813
0.00070899
0.00322033
0.00072853
0.00313904
0.000746709
0.00307497
0.000762234
0.0030289
0.00300197
0.000773406
0.000573352
0.00768331
0.000558441
0.0072641
0.00054788
0.0068677
0.000540444
0.00649392
0.000535884
0.00614178
0.000535092
0.00580964
0.000536187
0.00549926
0.000539686
0.00520843
0.000545466
0.00493694
0.000552928
0.00468522
0.000563175
0.00445081
0.000574329
0.00423544
0.000588138
0.00403665
0.000604036
0.0038555
0.000621189
0.00369121
0.000640094
0.00354334
0.00066023
0.00341196
0.000680994
0.00329736
0.000701492
0.00319982
0.000720562
0.00311997
0.000736914
0.00305861
0.00074895
0.00301686
0.00299615
0.000754769
0.000550254
0.00814738
0.000533765
0.00769979
0.000521048
0.00727681
0.000511515
0.00687723
0.000505901
0.00649953
0.000503919
0.00614375
0.000503936
0.00580961
0.000506714
0.00549648
0.000511758
0.00520337
0.000518624
0.00493006
0.000528401
0.00467543
0.000539953
0.00443925
0.000553944
0.00422143
0.000569831
0.00402075
0.000587654
0.00383766
0.000607425
0.00367143
0.000628395
0.00352235
0.000650009
0.00339034
0.000671332
0.00327603
0.000691207
0.00317994
0.000708221
0.00310294
0.000720748
0.00304608
0.000726931
0.00301066
0.00299826
0.000724784
0.000506574
0.00816655
0.000491624
0.00771474
0.000480578
0.00728785
0.000473487
0.00688431
0.00046954
0.00650347
0.000468739
0.00614455
0.00047077
0.00580757
0.000474975
0.00549227
0.00048143
0.00519691
0.000490671
0.00492081
0.000502205
0.00466388
0.000516051
0.00442539
0.000532284
0.00420519
0.000550574
0.00400246
0.000571006
0.00381723
0.00059282
0.00364962
0.00061529
0.00349988
0.00063739
0.00336824
0.000657863
0.00325555
0.000675283
0.00316252
0.000687994
0.00309024
0.000694157
0.00303991
0.000691801
0.00301299
0.00301117
0.00067884
0.000476485
0.00866497
0.000459509
0.00818352
0.000446169
0.00772807
0.000437203
0.00729681
0.000431784
0.00688972
0.000430086
0.00650516
0.000430974
0.00614365
0.000433999
0.00580454
0.000439576
0.00548668
0.00044817
0.00518831
0.000459324
0.00490966
0.000473348
0.00464986
0.000489882
0.00440886
0.000509245
0.00418583
0.000530271
0.00398143
0.000552798
0.0037947
0.000575864
0.00362655
0.00059868
0.00347707
0.000619681
0.00334724
0.000637365
0.00323788
0.000649886
0.00315001
0.00065553
0.00308458
0.000652372
0.00304308
0.000638526
0.00302678
0.00303769
0.000611938
0.000423214
0.00868481
0.000407787
0.00819895
0.000396802
0.00773906
0.000389751
0.00730386
0.000386345
0.00689313
0.000386084
0.00650542
0.000388242
0.0061415
0.000392848
0.00579994
0.000400651
0.00547889
0.000411683
0.00517728
0.000425891
0.00489545
0.000442813
0.00463294
0.000462372
0.00438931
0.000483967
0.00416424
0.000507093
0.00395832
0.000530947
0.00377086
0.000554463
0.00360305
0.000575769
0.00345578
0.000593339
0.00332969
0.00060536
0.00322587
0.000610033
0.00314535
0.000605427
0.00308922
0.000589877
0.00305864
0.000561707
0.00305502
0.00308028
0.00051918
0.000364858
0.00870252
0.000351355
0.00821245
0.000342189
0.00774823
0.0003372
0.00730885
0.000335706
0.00689463
0.000337059
0.00650407
0.000340417
0.00613815
0.000347362
0.005793
0.000358303
0.00546796
0.00037254
0.00516305
0.000390048
0.00487796
0.000410239
0.00461276
0.000432515
0.00436704
0.000456315
0.00414045
0.000481036
0.00393361
0.000504839
0.00374707
0.000526331
0.00358157
0.000543654
0.00343846
0.000554845
0.00331851
0.000558016
0.00322271
0.000551354
0.00315202
0.000533257
0.00310731
0.000502256
0.00308966
0.000457159
0.00310008
0.0031402
0.000397211
0.000299467
0.00871851
0.000288252
0.00822367
0.000281053
0.00775544
0.000277741
0.00731218
0.000278292
0.0068941
0.000280783
0.00650159
0.000286893
0.00613206
0.000297448
0.00578246
0.000311977
0.00545344
0.000330463
0.00514458
0.000351365
0.00485708
0.000374565
0.00458958
0.000399463
0.00434216
0.000424778
0.00411515
0.000449175
0.00390923
0.000470596
0.00372566
0.000487405
0.00356478
0.000497394
0.00342849
0.000498594
0.00331732
0.000489225
0.00323209
0.000467843
0.00317342
0.000433218
0.00314198
0.000384677
0.0031382
0.000321685
0.00316317
0.00321713
0.000244864
0.000226545
0.00873282
0.000216711
0.00823352
0.000211811
0.00776036
0.000210641
0.00731336
0.000211931
0.00689283
0.000217161
0.00649638
0.000227425
0.00612181
0.000242989
0.00576691
0.000262907
0.00543355
0.000285596
0.00512191
0.00031062
0.00483207
0.000336383
0.00456383
0.000362828
0.00431574
0.000387596
0.0040904
0.000408855
0.00388799
0.000425134
0.00370939
0.000433498
0.00355643
0.000432204
0.00342979
0.000419635
0.00332991
0.000394271
0.00325747
0.000355271
0.00321244
0.00030224
0.00319502
0.000235657
0.0032048
0.000156801
0.00324205
0.00330564
6.83374e-05
0.000143753
0.00874556
0.000135898
0.00824139
0.000132696
0.00776359
0.000132695
0.00731337
0.000136684
0.00688886
0.000145969
0.00648711
0.00016274
0.00610506
0.000184968
0.00574469
0.000210723
0.00540781
0.000238054
0.00509459
0.000265784
0.00480436
0.000293851
0.00453577
0.000318956
0.00429065
0.000340372
0.00406899
0.000355938
0.00387244
0.000362548
0.00370279
0.000358385
0.00356061
0.000342108
0.00344608
0.000312183
0.00335986
0.000268244
0.00330142
0.000210684
0.00327001
0.000140622
0.00326512
6.03687e-05
0.00328506
-2.66837e-05
0.00332916
0.00339609
-0.00011704
5.04332e-05
0.00875761
4.41853e-05
0.00824765
4.17424e-05
0.00776606
4.36098e-05
0.00731152
5.09602e-05
0.00688154
6.75737e-05
0.00647051
9.23945e-05
0.00608027
0.000122676
0.00571442
0.000154398
0.00537612
0.000185775
0.00506322
0.00021547
0.00477469
0.000242081
0.00450917
0.000263997
0.00426876
0.000278694
0.0040543
0.00028329
0.00386786
0.000276282
0.00370981
0.000255878
0.00358104
0.000221311
0.00348065
0.0001726
0.00340858
0.000110942
0.00336308
3.84584e-05
0.0033425
-4.17778e-05
0.00334538
-0.000126673
0.00336996
-0.000212613
0.0034152
0.00348002
-0.000296407
-5.2069e-05
0.008768
-5.80755e-05
0.00825367
-5.99388e-05
0.00776794
-5.62057e-05
0.0073078
-4.2593e-05
0.00686795
-1.68298e-05
0.00644476
1.76251e-05
0.00604584
5.52028e-05
0.00567686
9.17397e-05
0.0053396
0.000125138
0.00502984
0.000154353
0.0047455
0.000177192
0.00448634
0.000191434
0.00425454
0.000194497
0.00405125
0.000184479
0.0038779
0.000160383
0.00373391
0.000121561
0.00361988
6.89324e-05
0.00353329
4.60922e-06
0.00347292
-6.86841e-05
0.00343638
-0.000147765
0.0034216
-0.000229285
0.00342691
-0.000310232
0.00345091
-0.000387788
0.00349275
0.00355178
-0.000459516
-0.000164401
0.00877863
-0.000170247
0.00825954
-0.000171288
0.00776901
-0.000163158
0.00729969
-0.000140318
0.00684513
-0.000103652
0.0064081
-6.07475e-05
0.00600295
-1.85066e-05
0.00563463
1.95525e-05
0.00530156
5.18959e-05
0.0049975
7.67109e-05
0.00472069
9.11179e-05
0.00447194
9.29613e-05
0.00425271
8.07889e-05
0.00406343
5.38135e-05
0.00390489
1.18695e-05
0.00377586
-4.2979e-05
0.00367474
-0.000108392
0.0035987
-0.000181043
0.00354558
-0.000257562
0.0035129
-0.000334919
0.00349896
-0.000410011
0.00350205
-0.00048087
0.00352177
-0.000545249
0.00355727
0.00360872
-0.000602034
-0.000283063
0.00878945
-0.00028965
0.00826612
-0.00028874
0.0077681
-0.000273167
0.00728411
-0.000238609
0.00681057
-0.00019241
0.0063619
-0.000143412
0.00595395
-9.99001e-05
0.00559111
-6.37378e-05
0.00526539
-3.72713e-05
0.00497103
-2.21687e-05
0.00470559
-2.05353e-05
0.00447031
-3.37475e-05
0.00426592
-6.24857e-05
0.00409216
-0.000105691
0.0039481
-0.000161469
0.00383164
-0.000226018
0.00373929
-0.000296476
0.00366916
-0.000369234
0.00361834
-0.000441389
0.00358506
-0.000510184
0.00356776
-0.000574039
0.00356588
-0.000631197
0.00357894
-0.000681072
0.00360706
0.00365001
-0.000722429
-0.000406975
0.00880193
-0.000413914
0.00827306
-0.00040873
0.00776292
-0.00038291
0.00725829
-0.000337384
0.00676504
-0.000282915
0.00630743
-0.000232876
0.0059039
-0.000192783
0.00555101
-0.000164014
0.00523662
-0.000147578
0.00495459
-0.000145695
0.0047037
-0.00015915
0.00448376