/*--------------------------------*- C++ -*----------------------------------*\
  =========                 |
  \\      /  F ield         | OpenFOAM: The Open Source CFD Toolbox
   \\    /   O peration     | Website:  https://openfoam.org
    \\  /    A nd           | Version:  9
     \\/     M anipulation  |
\*---------------------------------------------------------------------------*/
FoamFile
{
    format      ascii;
    class       volScalarField;
    location    "1500";
    object      ReThetat;
}
// * * * * * * * * * * * * * * * * * * * * * * * * * * * * * * * * * * * * * //

dimensions      [0 0 0 0 0 0 0];

internalField   nonuniform List<scalar> 
13354
(
605.472
609.67
611.196
612.22
613.121
614.205
613.573
608.947
597.5
578.61
557.925
546.502
544.34
609.733
598.344
602.166
606.117
608.505
610.642
611.983
610.84
604.044
588.663
566.581
548.376
540.526
614.981
599.805
595.901
600.551
605.473
608.632
610.626
610.993
607.17
595.225
574.206
552.807
541.45
620.247
604.399
593.302
593.545
599.74
605.239
608.925
610.305
607.549
597.025
576.849
555.202
542.289
625.117
610.99
596.776
588.425
589.897
594.852
599.335
601.521
599.068
589.075
569.117
552.409
537.483
629.008
618.12
604.617
590.293
584.523
583.914
585.268
585.609
582.701
574.355
559.814
546.572
530.786
631.933
624.86
616.079
604.214
593.718
586.91
582.413
578.72
573.923
566.484
555.943
546.961
537.654
634.138
629.268
624.789
618.849
611.509
604.822
597.552
590.739
584.388
577.396
569.87
565.265
569.846
636.517
631.896
629.35
627.863
626.486
624.184
619.648
614.287
609.212
604.409
600.647
600.842
608.561
640.072
634.029
631.111
630.703
632.264
633.671
633.043
631.231
629.488
627.878
626.808
627.659
631.303
645.502
637.057
632.404
630.895
632.498
634.947
636.157
636.369
636.746
637.138
637.377
638.04
639.464
653.84
642.091
634.281
630.754
631.296
633.668
635.22
635.738
636.485
637.44
638.133
638.766
639.533
667.618
649.167
637.851
631.437
630.313
632.371
634.11
634.288
634.372
634.897
635.296
635.509
635.707
673.212
662.525
643.434
633.322
629.762
631.264
633.585
633.757
632.851
632.345
632.011
631.416
630.675
672.698
667.793
655.224
637.884
630.024
629.691
632.8
633.979
632.64
630.934
629.626
628.051
625.947
668.102
667.865
662.445
646.805
632.713
628.658
631.133
633.773
633.333
630.869
628.394
625.773
622.231
658.523
663.935
663.742
655.903
638.392
628.464
628.218
631.883
633.698
631.754
628.256
624.488
619.596
646.727
657.042
661.619
658.689
647.371
631.373
625.385
627.983
632.345
632.54
628.927
624.016
617.842
635.664
648.383
657.182
658.929
653.025
638.035
625.188
623.687
628.662
631.906
629.841
624.259
616.8
625.904
639.914
651.996
657.488
655.525
645.482
628.483
620.467
623.125
628.877
630.123
625.052
616.517
606.936
632.351
646.682
654.838
656.346
650.203
635.965
620.99
618.263
623.828
628.591
625.866
617.122
593.025
622.57
641.315
652.514
656.469
653.492
643.111
626.762
616.288
618.044
624.496
625.654
618.451
582.714
612.345
635.427
650.396
656.78
656.142
648.868
635.108
619.413
614.794
619.434
623.81
620.038
574.765
605.383
630.417
647.946
657.101
658.714
653.802
642.925
627.008
615.53
616.871
621.364
620.725
568.497
586.592
621.722
644.656
657.898
661.694
658.541
650.114
636.074
620.791
615.994
618.427
619.637
563.549
573.48
611.301
640.431
658.41
664.982
663.727
657.199
645.249
629.481
618.514
618.326
618.517
559.652
565.265
590.421
628.91
653.863
666.627
669.39
664.872
654.489
639.534
625.025
619.54
621.016
556.608
559.956
574.101
614.27
645.285
665.481
674.51
673.419
664.46
650.246
634.348
623.589
622.672
554.269
556.38
564.23
588.264
628.99
658.602
676.306
681.799
675.908
662.221
645.461
630.983
625.367
552.524
553.916
558.385
571.988
598.654
639.684
669.207
685.891
687.616
676.304
658.613
641.191
630.638
551.286
552.227
554.831
562.568
578.551
606.875
648.339
679.288
694.524
691.083
674.439
654.303
639.037
550.483
551.113
552.65
557.057
566.552
584.057
613.989
657.742
689.546
701.206
691.685
670.849
650.985
550.058
550.454
551.348
553.831
559.405
569.926
588.894
622.685
668.69
699.268
705.352
689.6
666.813
549.942
550.165
550.65
551.994
555.186
561.302
572.761
595.27
634.323
681.371
707.781
705.819
685.462
550.145
550.177
550.388
551.044
552.769
556.131
562.7
576.82
604.994
651.261
695.279
713.694
704.058
550.513
550.555
550.486
550.469
550.687
551.493
553.129
556.628
564.927
584.081
619.976
672.416
710.156
717.988
554.584
554.24
553.749
552.846
552.385
552.216
552.025
551.539
551.098
551.154
551.016
550.826
550.752
550.966
551.507
553.127
557.619
569.841
596.522
639.168
691.802
720.571
555.788
555.443
554.889
553.967
553.503
553.286
553.01
552.41
551.98
551.917
551.715
551.402
551.129
550.952
550.781
551.272
553.397
560.647
579.537
613.494
659.2
706.516
557.047
556.765
556.177
555.256
554.797
554.552
554.216
553.528
553.007
552.814
552.549
552.151
551.74
551.296
550.654
550.472
551.192
555.098
567.759
594.035
632.491
677.405
558.516
558.07
557.488
556.605
556.149
555.874
555.492
554.738
554.122
553.817
553.493
553.034
552.529
551.898
550.939
550.358
550.273
552.064
560.055
579.589
611.493
650.499
560.649
559.695
558.793
557.973
557.529
557.218
556.787
555.978
555.289
554.9
554.524
554.021
553.452
552.687
551.512
550.697
550.17
550.696
555.397
569.265
595.028
628.891
563.401
561.884
560.459
559.341
558.913
558.572
558.086
557.23
556.487
556.036
555.619
555.086
554.476
553.608
552.289
551.342
550.582
550.39
552.911
562.288
582.31
611.361
569.442
566.716
564.555
562.585
561.003
560.293
559.917
559.387
558.489
557.706
557.207
556.756
556.206
555.572
554.625
553.213
552.198
551.319
550.746
551.905
557.931
572.806
597.053
574.037
570.583
567.683
565.095
563.031
561.83
561.253
560.681
559.752
558.938
558.401
557.924
557.365
556.719
555.705
554.242
553.2
552.267
551.513
551.858
555.521
566.081
585.499
579.198
574.963
571.259
567.975
565.368
563.653
562.6
561.953
561.008
560.176
559.611
559.113
558.552
557.898
556.827
555.343
554.306
553.356
552.525
552.402
554.51
561.662
576.458
584.878
579.778
575.254
571.228
568.003
565.734
564.174
563.218
562.244
561.41
560.83
560.319
559.756
559.096
557.973
556.495
555.479
554.53
553.672
553.321
554.436
559.028
569.739
591.009
584.963
579.613
574.838
570.936
568.055
565.97
564.559
563.456
562.629
562.051
561.534
560.973
560.306
559.13
557.676
556.696
555.755
554.92
554.456
554.92
557.725
565.092
597.549
590.498
584.288
578.763
574.151
570.604
567.965
566.081
564.662
563.829
563.267
562.754
562.199
561.521
560.289
558.884
557.948
557.036
556.22
555.669
555.742
557.39
562.078
604.465
596.391
589.257
582.948
577.6
573.359
570.154
567.786
565.961
565.017
564.474
563.974
563.431
562.736
561.458
560.123
559.229
558.33
557.507
556.918
556.803
557.578
560.183
611.713
602.634
594.503
587.339
581.227
576.297
572.526
569.649
567.398
566.209
565.672
565.193
564.667
563.947
562.634
561.363
560.501
559.602
558.786
558.213
557.864
557.918
559.193
619.242
609.189
599.997
591.883
584.989
579.397
575.055
571.634
568.95
567.45
566.867
566.411
565.896
565.148
563.793
562.587
561.759
560.869
560.071
559.379
558.714
558.337
558.841
627.019
616.001
605.685
596.534
588.867
582.634
577.688
573.691
570.574
568.788
568.073
567.62
567.11
566.338
564.954
563.828
562.999
562.076
561.181
560.256
559.424
558.951
559.58
635.021
623.005
611.502
601.274
592.848
585.945
580.344
575.766
572.252
570.191
569.283
568.819
568.323
567.537
566.1
565.036
564.076
563.033
561.929
561.008
560.255
560.514
560.791
643.215
630.122
617.385
606.113
596.884
589.214
582.926
577.825
573.986
571.665
570.51
570.014
569.548
568.643
567.165
566.029
565.025
563.745
562.769
561.899
561.984
562.307
564.783
651.563
637.265
623.307
611.034
600.846
592.299
585.386
579.884
575.781
573.219
571.822
571.216
570.686
569.627
568.066
566.977
565.854
564.716
563.589
563.455
563.886
566.817
573.899
659.844
644.392
629.257
615.917
604.563
595.138
587.766
581.997
577.651
574.815
573.16
572.398
571.731
570.527
568.861
567.75
566.579
565.429
564.803
565.358
568.8
576.657
593.555
668.46
651.434
635.159
620.537
607.936
597.828
590.215
584.229
579.57
576.391
574.488
573.517
572.682
571.22
569.365
568.157
567.053
566.55
567.356
571.273
579.733
597.601
624.565
676.749
658.592
640.879
624.691
611.079
600.64
592.888
586.557
581.45
577.885
575.695
574.427
573.26
571.523
569.654
568.651
568.622
569.938
574.909
584.196
602.459
630.738
674.867
702.083
684.698
665.631
646.141
628.427
614.367
603.877
595.8
588.842
583.101
579.109
576.556
574.873
573.706
571.756
570.818
570.751
573.276
578.702
589.712
608.855
638.522
684.22
743.941
713.411
693.405
672.222
650.733
632.208
618.302
607.64
598.727
590.756
584.292
579.848
576.819
575.406
573.917
573
572.656
576.087
581.788
595.057
615.544
648.429
695.721
758.722
828.49
748.208
727.845
702.759
678.194
655.052
636.838
623.126
611.537
601.133
591.954
584.865
579.936
577.175
575.719
574.652
574.688
578.19
585.008
601.206
622.547
661.341
710.323
780.106
846.349
896.738
770.688
744.394
712.161
683.812
660.23
642.88
628.302
614.638
602.383
592.19
584.608
579.974
577.37
576.37
577.046
580.99
590.465
608.461
635.171
679.758
730.597
811.015
868.42
915.687
952.784
794.901
760.607
721.368
690.127
667.515
649.88
632.401
615.844
601.936
591.289
584.131
579.795
578.069
579.458
585.331
596.196
617.943
649.284
698.517
756.986
837.954
894.954
937.001
971.472
998.814
817.032
775.63
730.988
698.934
677.124
655.965
633.634
614.352
599.853
589.761
583.39
580.244
581.725
588.639
603.386
626.359
663.594
717.697
781.69
863.893
919.84
960.521
991.309
1016.01
1035.52
838.115
790.566
742.989
711.889
687.283
658.431
630.898
610.511
596.772
587.975
583.46
584.124
590.991
609.316
635.002
679.855
737.513
810.597
888.807
943.957
982.88
1011.77
1033.83
1050.69
1062.59
860.663
807.972
760.099
728.709
694.328
655.294
624.715
605.452
593.83
587.696
587.147
593.715
614.37
645.697
702.205
761.785
854.65
917.27
967.517
1004.49
1031.13
1050.83
1065.34
1074.7
1079.26
887.729
831.388
784.615
745.916
694.681
647.091
617.044
601.086
593.282
591.448
598.379
620.031
656.869
721.245
794.089
888.809
952.209
993.449
1025.29
1049.46
1066.42
1077.65
1084.99
1087.51
1083.53
922.061
864.958
816.016
757.439
687.181
636.565
610.839
599.608
597.246
604.609
626.533
667.296
738.496
821.487
920.213
980.383
1021.88
1047.55
1066.29
1080.07
1088.6
1092.3
1091.39
1086.06
1075.66
966.955
909.785
848.296
758.656
674.561
627.286
608.462
604.204
611.962
634.66
676.65
753.614
845.588
948.03
1007.17
1044.85
1070.37
1083.24
1091.85
1096.93
1096.76
1092.14
1084.18
1072.55
1053.95
1021.98
963.063
872.303
749.927
661.701
622.906
613.448
620.873
644.309
687.989
766.818
866.206
973.057
1032.98
1065.84
1087.41
1100.16
1102.82
1101.84
1098.06
1090.44
1079.42
1063.34
1043.57
1020.88
1084.65
1015.89
882.793
737.365
654.633
627.619
631.037
655.182
702.251
781.062
883.528
994.228
1055.53
1086.62
1101.63
1111.16
1111.88
1104.96
1096.57
1085.95
1069.75
1050.32
1029.69
1002.42
966.181
1144.01
1059.4
882.833
728.387
658.116
646.143
666.626
715.973
793.603
897.086
1011.5
1073.66
1104.5
1114.77
1116.13
1115.52
1107.2
1092.42
1075.54
1056.73
1035.76
1008.96
976.307
939.809
900.183
1192.13
1089.49
880.37
731.635
677.531
682.916
727.969
803.682
906.237
1024.53
1086.67
1115.87
1124.7
1120.71
1113.28
1102.72
1084.23
1062.1
1040.9
1013.85
980.593
945.146
908.988
863.715
803.107
1227.65
1109.16
886.386
751.805
717.285
745.31
814.849
914.05
1031.86
1097.12
1122.15
1129.28
1122.3
1105.78
1088.84
1071.59
1046.78
1015.12
981.137
947.794
910.929
866.289
809.841
766.963
729.511
1253.21
1127.05
909.705
796.199
782.178
832.82
925.395
1035.38
1108.68
1127.98
1127.22
1116.22
1096.56
1072.67
1047.36
1018.25
980.972
945.648
907.125
862.364
807.296
767.21
732.477
707.634
687.8
1272.72
1152.62
955.413
864.499
873.134
943.934
1041.97
1123.95
1141.94
1126.53
1106.12
1081.82
1048.2
1010.7
978.181
943.709
899.305
849.656
798.491
762.424
729.792
706.73
688.507
675.811
666.259
1289.26
1191.25
1025.98
961.069
984.672
1062.47
1143.36
1169.68
1143.63
1098.73
1057.87
1016.86
974.792
930.176
884.811
830.484
787.117
752.526
723.227
702.78
685.912
674.167
665.556
659.932
656.11
1304.18
1236.29
1114.56
1072.2
1110.59
1169.74
1203.91
1184.62
1118.39
1042.52
984.73
928.268
867.677
815.486
777.357
742.531
716.101
696.491
681.344
670.917
662.915
657.668
654.382
652.782
652.208
1317.26
1275.83
1206.83
1183.42
1205.46
1234.86
1235.76
1179.27
1071.98
965.533
883.594
823.517
775.727
739.789
714.641
693.761
678.277
667.497
659.923
655.001
651.685
650.003
649.653
650.388
651.747
1328.04
1302.94
1263.95
1249.26
1259.89
1271.48
1251.81
1165.33
1018.21
889.527
812.884
762.599
726.562
701.343
684.117
670.528
660.689
654.306
650.353
648.163
647.158
647.322
648.568
650.672
653.229
1336.61
1320.08
1296.39
1286.11
1290.45
1292.67
1261.82
1155.68
980.328
853.51
782.391
737.925
707.743
687.542
673.719
663.074
655.438
650.737
648.146
646.959
646.826
647.771
649.763
652.596
655.873
1343.91
1331.83
1315.79
1307.74
1308.69
1306.2
1272.27
1161.09
978.35
853.366
782.692
738.664
709.667
690.34
676.809
666.241
658.696
654.002
651.278
649.924
649.709
650.633
652.713
655.761
659.349
1350.48
1340.71
1328.44
1321.55
1320.75
1316.27
1285.34
1184.09
1009.56
882.243
806.447
758.915
727.36
706.139
690.411
678.139
669.224
663.202
659.266
656.844
655.706
655.898
657.458
660.192
663.657
1356.59
1348.05
1337.59
1331.37
1329.72
1324.7
1300.08
1219.45
1064.26
934.149
850.954
796.065
759.591
733.793
714.303
698.849
687.214
678.817
672.68
668.251
665.399
664.129
664.472
666.296
669.127
1362.35
1354.49
1344.89
1339.14
1337.1
1332.13
1314.39
1258.06
1135.74
1006.46
913.605
850.45
806.17
774.428
749.342
729.331
713.977
702.013
692.635
685.347
679.872
676.267
674.64
674.838
676.383
1367.81
1360.38
1351.18
1345.79
1343.58
1338.75
1326.48
1291
1207.69
1091.02
994.079
920.814
868.802
828.972
797.136
771.589
750.93
734.394
720.934
709.645
700.526
693.727
689.201
686.888
686.415
1372.89
1365.8
1356.81
1351.8
1349.49
1344.63
1335.54
1314.67
1264.72
1180.62
1084.91
1007.55
946.873
899.592
860.243
826.907
800.245
778.396
759.353
743.025
729.401
718.221
709.708
703.988
700.57
1377.43
1370.79
1361.99
1357.36
1355
1349.99
1342.53
1329.91
1301.33
1250.1
1178.99
1102.73
1040.43
986.846
938.183
897.865
864.594
835.497
810.234
788.176
768.548
751.825
738.371
728.019
720.541
1381.19
1375.27
1366.74
1362.58
1360.18
1354.97
1348.23
1339.25
1322.11
1292.05
1248.85
1196.53
1140.83
1084.42
1031.46
984.154
943.3
907.94
876.282
846.703
820.307
797.328
777.455
761.2
748.646
1383.67
1379.1
1371.08
1367.48
1365.06
1359.68
1353.23
1345.59
1333.14
1313.93
1288.62
1260.42
1228.18
1184.94
1130.77
1080.39
1036.51
995.918
956.667
920.483
887.396
856.558
829.328
806.344
787.228
1384.33
1381.99
1374.91
1372.02
1369.65
1364.14
1357.84
1350.52
1339.46
1324.64
1308.47
1294.87
1281.21
1257
1219.81
1178.71
1135.14
1092.16
1050.83
1010.07
968.933
930.912
896.575
865.418
838.619
1381.69
1383.35
1377.97
1376.07
1373.86
1368.32
1362.14
1354.73
1343.69
1330.05
1318.08
1312.09
1308.14
1295.71
1273.02
1246.9
1218.91
1187.39
1150.15
1106.07
1062.77
1020.49
978.377
939.408
905.167
1375.69
1382.66
1380.1
1379.61
1377.69
1372.28
1366.24
1358.57
1347.03
1333.39
1323.2
1321.04
1321.63
1314.27
1299.12
1282.84
1267.15
1249.47
1226.65
1196.51
1160.23
1115.76
1071.06
1028.11
986.381
1365.06
1377.71
1379.93
1381.77
1380.54
1375.49
1369.71
1361.74
1349.55
1335.63
1326.5
1326.32
1328.43
1323.04
1311.18
1299.57
1290.12
1280.61
1268.26
1251.13
1228.62
1199.2
1163.96
1121.37
1076.53
1352.27
1370.09
1378.25
1383.38
1383.35
1378.94
1373.45
1365.18
1352.33
1338.14
1329.92
1330.93
1333.23
1327.95
1317.45
1308.09
1301.19
1295.16
1287.83
1277.9
1264.82
1247.79
1226.39
1198.93
1165.24
1328.2
1352.1
1367.44
1378.72
1381.56
1379.02
1374.43
1366.04
1352.55
1338.42
1331.51
1333.72
1335.84
1330.11
1319.99
1311.46
1305.76
1301.21
1295.8
1288.82
1280.05
1269.37
1256.6
1240.86
1221.11
1321.06
1344.84
1362.48
1376.25
1380.99
1379.59
1375.75
1367.84
1354.71
1341.29
1335.6
1337.96
1339.31
1333.22
1323.46
1315.42
1310.05
1305.81
1301.14
1295.41
1288.39
1280.38
1271.44
1260.96
1247.38
1273.93
1308.22
1341.94
1368.5
1381.64
1385.61
1383.9
1373.9
1357.93
1344.28
1340.74
1345.39
1346.05
1338.1
1327.32
1318.59
1312.61
1307.93
1302.95
1297.04
1290.19
1282.73
1274.96
1266.9
1258.31
1266.18
1271.76
1286.94
1296.81
1302.34
1304.72
1305.09
1304.13
1303.47
1304.36
1306.23
1306.95
1305.06
1301.67
1298.39
1295.66
1293.14
1290.36
1287.02
1283.13
1278.89
1274.54
1270.23
1265.88
1261.02
978.402
1236.5
1178.44
1178.82
1176.71
1175.09
1173.78
1172.68
1171.7
1170.85
1170.13
1169.52
1168.99
1168.54
1168.15
1167.8
1167.48
1167.19
1166.92
1166.67
1166.42
1166.18
1165.95
1165.74
1165.58
1165.49
1165.52
1165.7
1166.08
1166.68
1167.55
1168.73
1170.26
1172.15
1174.44
1177.14
1180.28
1183.91
1187.99
1192.47
1197.15
1201.74
1205.88
1209.15
1211.15
1211.45
1209.75
1205.9
1200
1192.31
1183.25
1173.22
1162.44
1150.93
1138.52
1124.79
1109.23
1091.17
1069.93
1044.86
1016.68
987.743
959.956
935.432
915.565
900.84
890.357
882.334
875.613
870.166
866.548
864.887
864.92
866.858
871.501
880.137
894.352
914.823
941.332
972.253
1004.05
1033.68
1061.09
1086.23
1108.25
1126.46
1141.72
1156.1
1169.64
1181.72
1192.38
1201.85
1210.41
1218.18
1225.6
1233.03
1240.59
1248
1254.87
962.198
1429.24
1176.81
1178.77
1177.38
1176.37
1175.61
1175.07
1174.69
1174.48
1174.41
1174.45
1174.58
1174.78
1175.05
1175.36
1175.72
1176.08
1176.44
1176.78
1177.07
1177.3
1177.44
1177.46
1177.35
1177.06
1176.54
1175.7
1174.42
1172.7
1170.45
1167.64
1164.18
1160.01
1155.05
1149.22
1142.53
1134.94
1126.43
1117.04
1106.92
1096.32
1085.42
1074.38
1063.36
1052.53
1042.08
1032.24
1023.18
1014.92
1007.37
1000.66
994.987
990.542
987.514
985.812
985.457
986.377
988.368
991.167
994.608
998.512
1002.56
1006.35
1009.45
1011.43
1011.87
1010.58
1007.65
1002.71
994.292
982.58
969.795
955.4
935.436
906.39
874.487
843.988
814.836
789.015
769.221
757.885
758.688
771.7
798.647
836.193
878.2
925.964
974.784
1017.64
1055.99
1091.29
1123.37
1152.5
1178.52
1201.07
1220.59
1236.16
1248.93
938.942
1230.33
1176.96
1176.73
1175.75
1174.98
1174.37
1173.93
1173.6
1173.38
1173.26
1173.22
1173.25
1173.33
1173.47
1173.67
1173.92
1174.2
1174.51
1174.86
1175.23
1175.61
1175.93
1176.19
1176.42
1176.61
1176.75
1176.84
1176.89
1176.88
1176.81
1176.68
1176.47
1176.2
1175.87
1175.48
1175.03
1174.53
1174
1173.44
1172.87
1172.33
1171.93
1171.92
1172.45
1173.58
1175.25
1177.54
1180.58
1184.39
1188.5
1192.32
1195.65
1198.51
1200.92
1202.92
1204.34
1205.23
1205.6
1205.09
1203.64
1201.17
1197.62
1192.93
1187.2
1180.62
1173.4
1165.57
1157.08
1147.32
1134.21
1115.36
1097.14
1082.36
1064.85
1037.6
1003.3
968.32
931.955
894.462
858.178
825.318
798.87
782.165
774.67
774.357
780.239
791.971
811.364
838.559
873.242
914.637
960.305
1010.68
1061.56
1112.62
1162.08
1199.62
1228.31
931.83
1233.07
1174.1
1174.19
1173.53
1172.98
1172.55
1172.24
1172.02
1171.87
1171.77
1171.73
1171.69
1171.66
1171.6
1171.51
1171.38
1171.19
1170.93
1170.6
1170.17
1169.63
1168.97
1168.18
1167.25
1166.18
1164.98
1163.63
1162.13
1160.47
1158.65
1156.68
1154.55
1152.27
1149.82
1147.22
1144.45
1141.53
1138.43
1135.17
1131.75
1128.13
1124.34
1120.48
1116.74
1113.28
1110.05
1107.01
1104.19
1101.76
1099.57
1097.2
1094.34
1091.02
1087.39
1083.57
1079.5
1075.25
1070.88
1066.28
1061.32
1056
1050.28
1044.11
1037.51
1030.54
1023.3
1015.79
1008.26
1000.63
991.902
980.311
967.284
956.687
947.953
935.69
920.376
904.428
887.733
869.598
850.688
831.589
814.761
803.436
799.078
800.149
804.311
811.04
823.016
841.867
868.201
900.653
938.961
982.761
1027.45
1074.27
1121.5
1161.08
1196.13
926.777
1250.72
1171.35
1171.11
1170.66
1170.22
1169.86
1169.58
1169.35
1169.16
1169.01
1168.88
1168.76
1168.63
1168.48
1168.31
1168.12
1167.89
1167.63
1167.33
1166.98
1166.58
1166.12
1165.6
1165.01
1164.36
1163.64
1162.86
1162.02
1161.12
1160.15
1159.12
1158.02
1156.84
1155.58
1154.24
1152.81
1151.27
1149.64
1147.88
1146.01
1143.99
1141.85
1139.58
1137.32
1135.3
1133.58
1132.11
1130.89
1130.01
1129.5
1128.94
1127.9
1126.27
1124.15
1121.66
1118.74
1115.38
1111.72
1107.65
1103.05
1097.89
1092.13
1085.68
1078.56
1070.89
1062.75
1054.06
1044.93
1035.57
1025.67
1013.4
998.24
984.168
971.253
954.673
933.916
912.749
891.905
870.815
849.87
829.129
810.054
795.186
786.265
782.251
781
781.271
785.098
794.868
810.969
833.195
861.806
895.981
935.331
979.621
1025.85
1073.72
1125.23
925.991
1301.83
1168.8
1167.9
1167.64
1167.27
1166.96
1166.7
1166.48
1166.28
1166.08
1165.89
1165.68
1165.45
1165.19
1164.88
1164.53
1164.14
1163.7
1163.21
1162.67
1162.07
1161.43
1160.72
1159.94
1159.11
1158.22
1157.28
1156.29
1155.24
1154.12
1152.95
1151.7
1150.36
1148.94
1147.42
1145.79
1144.05
1142.19
1140.19
1138.04
1135.73
1133.23
1130.53
1127.7
1124.94
1122.4
1120.08
1117.94
1116.02
1114.42
1112.91
1111.06
1108.64
1105.71
1102.38
1098.65
1094.51
1090.12
1085.5
1080.47
1074.99
1069.07
1062.6
1055.58
1048.09
1040.29
1032.15
1023.64
1014.83
1005.66
995.086
981.921
969.275
958.334
945.514
927.826
909.066
890.637
872.182
853.687
834.95
816.875
801.482
790.743
784.27
780.018
776.146
774.38
777.059
784.762
797.784
816.12
839.818
869.237
903.462
942.329
986.043
1034.44
927.171
1349.31
1166.53
1164.57
1164.43
1164.11
1163.81
1163.54
1163.3
1163.05
1162.81
1162.54
1162.26
1161.95
1161.6
1161.21
1160.78
1160.32
1159.82
1159.27
1158.69
1158.08
1157.43
1156.74
1155.99
1155.21
1154.38
1153.52
1152.62
1151.68
1150.68
1149.62
1148.51
1147.3
1145.99
1144.58
1143.08
1141.45
1139.7
1137.81
1135.77
1133.56
1131.15
1128.54
1125.75
1122.9
1120.19
1117.69
1115.35
1113.2
1111.34
1109.69
1107.89
1105.59
1102.75
1099.46
1095.79
1091.64
1087.18
1082.5
1077.43
1071.88
1065.89
1059.38
1052.3
1044.69
1036.71
1028.39
1019.73
1010.78
1001.47
991.087
978.282
964.919
953.308
941.098
924.019
905.136
886.751
869.022
851.734
834.5
817.677
802.617
791.11
783.353
777.463
771.339
766.018
763.802
765.581
771.41
781.581
796.661
816.614
841.607
871.864
906.539
947.976
927.641
1337.88
1164.6
1161.24
1161.22
1160.92
1160.62
1160.34
1160.07
1159.79
1159.49
1159.17
1158.83
1158.45
1158.02
1157.56
1157.05
1156.52
1155.94
1155.34
1154.7
1154.04
1153.34
1152.61
1151.83
1151
1150.14
1149.25
1148.31
1147.33
1146.28
1145.19
1144.03
1142.78
1141.44
1140
1138.46
1136.79
1135
1133.06
1130.97
1128.7
1126.24
1123.59
1120.75
1117.76
1114.79
1111.99
1109.34
1106.84
1104.56
1102.53
1100.49
1098.06
1095.09
1091.63
1087.77
1083.46
1078.76
1073.83
1068.56
1062.85
1056.7
1050.1
1042.97
1035.33
1027.31
1018.98
1010.33
1001.39
992.187
982.282
970.488
957.397
945.898
934.752
919.296
900.906
882.71
865.48
849.038
832.971
817.308
802.895
791.198
782.791
776.086
768.909
761.476
756.034
753.502
753.988
757.938
765.726
777.771
794.534
815.796
841.609
874.696
926.776
1369.47
1163.1
1157.95
1158.01
1157.75
1157.44
1157.14
1156.83
1156.51
1156.16
1155.79
1155.39
1154.95
1154.47
1153.94
1153.38
1152.79
1152.17
1151.51
1150.83
1150.12
1149.38
1148.61
1147.8
1146.97
1146.1
1145.19
1144.24
1143.24
1142.18
1141.07
1139.89
1138.63
1137.28
1135.84
1134.3
1132.63
1130.83
1128.89
1126.79
1124.51
1122.06
1119.39
1116.52
1113.46
1110.31
1107.25
1104.34
1101.54
1098.91
1096.51
1094.21
1091.66
1088.58
1085
1081.03
1076.6
1071.72
1066.59
1061.17
1055.31
1049.02
1042.32
1035.13
1027.44
1019.35
1010.97
1002.28
993.319
984.084
974.323
963.085
950.188
938.458
927.844
914.023
896.276
878.178
861.119
845.156
829.916
815.177
801.494
789.951
781.286
774.314
766.943
758.666
751.385
746.091
742.941
742.239
744.531
750.408
760.174
773.978
791.99
816.033
987.506
1458.09
1161.62
1154.71
1154.88
1154.66
1154.33
1154
1153.67
1153.31
1152.92
1152.5
1152.05
1151.56
1151.03
1150.46
1149.87
1149.24
1148.57
1147.88
1147.16
1146.41
1145.64
1144.83
1144
1143.13
1142.23
1141.3
1140.31
1139.28
1138.19
1137.05
1135.83
1134.54
1133.16
1131.68
1130.1
1128.39
1126.56
1124.58
1122.44
1120.14
1117.64
1114.95
1112.03
1108.92
1105.64
1102.34
1099.15
1096.06
1093.1
1090.32
1087.7
1084.96
1081.76
1078.05
1073.92
1069.37
1064.33
1058.98
1053.38
1047.37
1040.93
1034.09
1026.82
1019.08
1010.93
1002.49
993.753
984.767
975.558
965.951
955.215
942.727
930.728
920.349
908.046
891.3
873.408
856.391
840.646
825.927
811.808
798.718
787.405
778.614
771.586
764.484
756.177
748.107
741.288
735.803
731.985
730.416
731.584
735.99
743.877
755.107
771.294
1237.82
1434.79
1158.58
1151.7
1151.9
1151.71
1151.38
1151.04
1150.68
1150.3
1149.88
1149.43
1148.94
1148.41
1147.84
1147.24
1146.6
1145.93
1145.23
1144.5
1143.74
1142.96
1142.14
1141.3
1140.42
1139.52
1138.58
1137.6
1136.57
1135.49
1134.37
1133.18
1131.92
1130.59
1129.17
1127.65
1126.03
1124.28
1122.41
1120.4
1118.23
1115.89
1113.37
1110.64
1107.7
1104.54
1101.17
1097.69
1094.23
1090.87
1087.59
1084.46
1081.5
1078.51
1075.17
1071.33
1067.05
1062.35
1057.17
1051.62
1045.82
1039.66
1033.05
1026.07
1018.7
1010.91
1002.69
994.18
985.395
976.372
967.149
957.634
947.265
935.252
923.004
912.571
901.431
885.987
868.465
851.468
835.829
821.425
807.677
794.978
783.843
774.901
767.826
761.102
753.207
745.078
737.627
730.909
725.209
721.029
718.924
719.429
722.689
728.678
738.607
1100.4
1316.56
1156.24
1148.94
1149.07
1148.92
1148.59
1148.24
1147.87
1147.47
1147.03
1146.55
1146.03
1145.47
1144.87
1144.23
1143.55
1142.84
1142.09
1141.32
1140.52
1139.68
1138.82
1137.93
1137.01
1136.06
1135.07
1134.03
1132.96
1131.84
1130.67
1129.44
1128.13
1126.75
1125.29
1123.73
1122.06
1120.28
1118.37
1116.31
1114.11
1111.73
1109.17
1106.42
1103.45
1100.24
1096.8
1093.19
1089.5
1085.88
1082.31
1078.84
1075.51
1072.23
1068.73
1064.75
1060.29
1055.44
1050.14
1044.39
1038.37
1032.05
1025.28
1018.15
1010.67
1002.8
994.518
985.934
977.091
968.025
958.782
949.32
939.246
927.713
915.384
904.696
894.338
880.327
863.347
846.432
830.854
816.642
803.106
790.621
779.568
770.424
763.201
756.723
749.391
741.599
734.106
726.927
720.254
714.564
710.372
708.141
708.095
710.205
715.138
1103.45
1274
1153.83
1146.25
1146.36
1146.24
1145.93
1145.59
1145.21
1144.8
1144.34
1143.84
1143.29
1142.7
1142.06
1141.38
1140.66
1139.91
1139.12
1138.3
1137.45
1136.57
1135.66
1134.72
1133.75
1132.75
1131.71
1130.62
1129.49
1128.32
1127.1
1125.81
1124.46
1123.03
1121.52
1119.91
1118.2
1116.38
1114.42
1112.33
1110.09
1107.68
1105.09
1102.3
1099.29
1096.04
1092.55
1088.83
1084.97
1081.09
1077.25
1073.45
1069.75
1066.16
1062.44
1058.31
1053.68
1048.66
1043.2
1037.28
1031.05
1024.55
1017.64
1010.35
1002.74
994.774
986.428
977.77
968.878
959.764
950.485
941.051
931.196
920.128
907.926
896.86
886.909
874.277
858.041
841.306
825.774
811.702
798.308
785.921
774.877
765.489
757.978
751.52
744.671
737.361
730.144
722.975
716.002
709.616
704.234
700.299
698.02
697.311
698.606
1100.5
1255.41
1151.52
1143.63
1143.77
1143.68
1143.4
1143.06
1142.69
1142.27
1141.79
1141.27
1140.7
1140.07
1139.4
1138.69
1137.93
1137.14
1136.3
1135.44
1134.54
1133.61
1132.65
1131.65
1130.63
1129.57
1128.46
1127.33
1126.15
1124.92
1123.64
1122.3
1120.89
1119.41
1117.85
1116.19
1114.43
1112.56
1110.56
1108.43
1106.14
1103.69
1101.07
1098.24
1095.19
1091.9
1088.35
1084.56
1080.56
1076.45
1072.35
1068.24
1064.19
1060.25
1056.27
1051.97
1047.17
1041.97
1036.36
1030.27
1023.82
1017.13
1010.08
1002.64
994.902
986.83
978.409
969.688
960.745
951.592
942.275
932.844
923.147
912.499
900.568
889.173
879.32
867.837
852.579
836.113
820.619
806.668
793.419
781.077
770.012
760.38
752.453
745.795
739.25
732.374
725.517
718.605
711.724
705.182
699.312
694.462
690.783
688.225
687.006
1098.14
1287.08
1149.48
1141.02
1141.27
1141.23
1140.96
1140.65
1140.28
1139.85
1139.37
1138.83
1138.24
1137.58
1136.88
1136.13
1135.33
1134.5
1133.62
1132.7
1131.76
1130.77
1129.76
1128.71
1127.63
1126.51
1125.34
1124.15
1122.91
1121.62
1120.28
1118.88
1117.42
1115.88
1114.26
1112.55
1110.74
1108.81
1106.76
1104.58
1102.25
1099.76
1097.09
1094.21
1091.12
1087.78
1084.19
1080.33
1076.22
1071.93
1067.58
1063.19
1058.81
1054.52
1050.24
1045.73
1040.79
1035.39
1029.61
1023.37
1016.72
1009.84
1002.65
995.083
987.203
979.024
970.525
961.753
952.767
943.567
934.218
924.792
915.193
904.885
893.311
881.744
871.778
861.169
847.03
830.922
815.486
801.628
788.543
776.242
765.149
755.309
746.924
739.908
733.445
726.866
720.316
713.703
707.088
700.727
694.83
689.619
685.207
681.537
678.665
1095.96
1404.19
1147.56
1138.43
1138.86
1138.87
1138.63
1138.33
1137.97
1137.55
1137.06
1136.51
1135.89
1135.21
1134.48
1133.69
1132.86
1131.98
1131.05
1130.09
1129.09
1128.06
1126.99
1125.88
1124.74
1123.56
1122.34
1121.08
1119.77
1118.42
1117.02
1115.55
1114.03
1112.42
1110.74
1108.97
1107.1
1105.12
1103.02
1100.78
1098.4
1095.86
1093.14
1090.22
1087.07
1083.69
1080.05
1076.13
1071.93
1067.49
1062.91
1058.27
1053.58
1048.94
1044.33
1039.6
1034.49
1028.92
1022.95
1016.56
1009.74
1002.66
995.318
987.637
979.627
971.337
962.764
953.936
944.906
935.674
926.306
916.876
907.331
897.29
886.12
874.536
864.342
854.332
841.345
825.747
810.388
796.59
783.683
771.441
760.336
750.356
741.559
734.105
727.521
721.075
714.716
708.332
702.004
695.957
690.29
685.104
680.425
676.198
672.41
1094.2
1294.27
1144.6
1136.16
1136.53
1136.59
1136.38
1136.1
1135.76
1135.34
1134.85
1134.28
1133.64
1132.94
1132.18
1131.36
1130.49
1129.57
1128.6
1127.59
1126.54
1125.46
1124.33
1123.17
1121.96
1120.72
1119.43
1118.1
1116.73
1115.31
1113.84
1112.31
1110.71
1109.04
1107.29
1105.45
1103.51
1101.47
1099.3
1097.01
1094.57
1091.98
1089.2
1086.22
1083.02
1079.59
1075.89
1071.9
1067.63
1063.07
1058.29
1053.4
1048.43
1043.45
1038.5
1033.49
1028.2
1022.46
1016.3
1009.75
1002.78
995.5
988.006
980.204
972.08
963.682
955.037
946.163
937.089
927.833
918.46
909.027
899.509
889.666
878.895
867.426
856.993
847.333
835.422
820.547
805.313
791.532
778.806
766.664
755.572
745.532
736.42
728.522
721.68
715.234
708.938
702.667
696.55
690.823
685.499
680.55
675.916
671.554
667.394
1092.48
1268.63
1142.08
1133.84
1134.26
1134.38
1134.21
1133.95
1133.62
1133.21
1132.71
1132.13
1131.48
1130.76
1129.97
1129.12
1128.21
1127.26
1126.25
1125.19
1124.1
1122.96
1121.78
1120.55
1119.29
1117.98
1116.62
1115.23
1113.78
1112.29
1110.74
1109.13
1107.45
1105.71
1103.88
1101.96
1099.95
1097.83
1095.6
1093.23
1090.73
1088.06