/*--------------------------------*- C++ -*----------------------------------*\
  =========                 |
  \\      /  F ield         | OpenFOAM: The Open Source CFD Toolbox
   \\    /   O peration     | Website:  https://openfoam.org
    \\  /    A nd           | Version:  9
     \\/     M anipulation  |
\*---------------------------------------------------------------------------*/
FoamFile
{
    format      ascii;
    class       volVectorField;
    location    "1500";
    object      U;
}
// * * * * * * * * * * * * * * * * * * * * * * * * * * * * * * * * * * * * * //

dimensions      [0 1 -1 0 0 0 0];

internalField   nonuniform List<vector> 
13354
(
(-0.117465 0.334375 4.03757e-19)
(0.373323 0.116264 0)
(0.702624 -0.201682 -6.3794e-19)
(0.915468 -0.243194 4.6089e-19)
(1.08825 -0.245212 -6.61594e-20)
(1.19988 -0.249683 7.79136e-20)
(1.261 -0.259684 0)
(1.29518 -0.272211 -1.92364e-21)
(1.31646 -0.278501 0)
(1.32536 -0.275393 7.70314e-21)
(1.30571 -0.255952 2.42118e-21)
(1.16685 -0.229369 -1.91522e-21)
(0.688057 -0.144558 6.66678e-21)
(-0.429184 0.621977 -2.53082e-19)
(-0.0297252 0.496138 0)
(0.455445 0.277789 -1.41672e-19)
(0.810971 0.100412 -2.45092e-19)
(1.02147 0.036882 2.23705e-19)
(1.15666 -0.0206985 -1.11103e-19)
(1.23595 -0.0708187 9.48175e-20)
(1.28177 -0.110498 -4.29394e-20)
(1.31256 -0.138218 1.06792e-19)
(1.33848 -0.155755 -3.10467e-20)
(1.34771 -0.161197 6.84957e-21)
(1.24875 -0.172692 -1.08493e-20)
(0.834132 -0.148365 -9.0698e-22)
(-0.506926 0.789359 -6.91831e-20)
(-0.203327 0.760267 0)
(0.18761 0.672471 9.18726e-20)
(0.569834 0.496077 -1.04903e-19)
(0.837138 0.350728 -8.42989e-20)
(1.0311 0.244701 1.27034e-19)
(1.16382 0.14329 -1.94806e-19)
(1.24187 0.0600344 -5.12087e-20)
(1.29077 0.00377313 4.93561e-21)
(1.33406 -0.0348042 -2.719e-20)
(1.36416 -0.0571295 1.30785e-21)
(1.28862 -0.0990045 0)
(0.924166 -0.112581 2.60889e-20)
(-0.573635 0.859614 -7.02169e-20)
(-0.311643 0.864744 0)
(0.0339307 0.846185 0)
(0.384963 0.776267 1.34128e-20)
(0.653785 0.648458 7.58686e-20)
(0.860271 0.522317 -1.12157e-19)
(1.02459 0.397622 2.14312e-19)
(1.1467 0.284477 2.32602e-21)
(1.23535 0.196086 4.32923e-20)
(1.30459 0.127365 -3.02353e-20)
(1.34372 0.071563 4.4865e-20)
(1.27537 -0.0110472 -1.46703e-20)
(0.945554 -0.0519127 -2.74528e-20)
(-0.60365 0.865396 4.77605e-20)
(-0.377613 0.884489 -1.23678e-19)
(-0.0634928 0.889209 1.66671e-19)
(0.262414 0.866926 -1.64756e-19)
(0.51934 0.8057 1.31689e-19)
(0.715707 0.716671 1.00702e-19)
(0.887351 0.608658 -1.4595e-19)
(1.03324 0.495121 -3.68439e-20)
(1.14706 0.388703 -4.11558e-20)
(1.22815 0.288953 -3.30981e-20)
(1.26173 0.187365 1.58007e-20)
(1.19147 0.0598162 1.48163e-20)
(0.878017 -0.0218734 6.33734e-20)
(-0.62261 0.827199 -2.38039e-21)
(-0.433811 0.853084 7.01199e-21)
(-0.148284 0.86201 6.27511e-20)
(0.165833 0.851627 -7.12992e-20)
(0.421399 0.821638 -1.35473e-20)
(0.59837 0.77013 8.19993e-20)
(0.751602 0.693333 0)
(0.894412 0.595415 7.70462e-20)
(1.01099 0.485992 -2.75693e-20)
(1.0864 0.367991 -3.02759e-20)
(1.10272 0.23606 -5.86361e-20)
(1.0233 0.0820472 1.4945e-20)
(0.718641 -0.0480721 -7.59652e-20)
(-0.617139 0.758712 -5.40693e-20)
(-0.475152 0.793641 -4.51791e-20)
(-0.228367 0.805101 4.55705e-21)
(0.0650466 0.794155 6.96173e-20)
(0.321717 0.762706 -1.6607e-19)
(0.490954 0.721789 -9.22289e-20)
(0.618339 0.66386 -6.31531e-20)
(0.737648 0.582698 0)
(0.837928 0.481759 1.16609e-20)
(0.897103 0.36467 -5.82584e-20)
(0.894542 0.230859 7.60833e-20)
(0.80344 0.080548 -7.34351e-21)
(0.584361 -0.0437501 -5.69957e-20)
(-0.579982 0.673073 1.19399e-19)
(-0.494697 0.718654 0)
(-0.294281 0.736994 5.31432e-21)
(-0.0321643 0.730611 4.99965e-20)
(0.215435 0.699751 6.77421e-20)
(0.386966 0.654894 6.38503e-20)
(0.49525 0.60273 4.03162e-20)
(0.590338 0.534894 -2.25154e-20)
(0.672042 0.450171 1.02341e-19)
(0.719981 0.352314 9.19122e-20)
(0.719934 0.246584 0)
(0.668797 0.142741 0)
(0.596948 0.0844649 3.69523e-20)
(-0.49706 0.568093 -1.65333e-19)
(-0.481424 0.634052 0)
(-0.335675 0.662862 0)
(-0.109172 0.667024 0)
(0.122864 0.649709 0)
(0.293102 0.613135 -6.59165e-20)
(0.395371 0.56834 2.6397e-20)
(0.478377 0.516099 2.78393e-20)
(0.554226 0.45474 -4.7648e-20)
(0.609289 0.387409 -2.96112e-21)
(0.637923 0.32171 3.45163e-20)
(0.647738 0.267196 -3.41421e-20)
(0.657213 0.241014 3.6317e-21)
(-0.355301 0.446157 2.73904e-19)
(-0.430361 0.540821 4.9043e-21)
(-0.345402 0.58288 -4.71324e-20)
(-0.159392 0.598467 6.58899e-21)
(0.0556027 0.597182 2.0102e-20)
(0.223827 0.580968 1.91197e-20)
(0.326494 0.552542 2.09439e-20)
(0.406934 0.519104 2.30491e-20)
(0.486338 0.481655 5.76569e-20)
(0.555206 0.441682 -5.64969e-20)
(0.609561 0.404513 -3.24209e-20)
(0.654731 0.375292 5.5878e-20)
(0.695906 0.356228 -2.68346e-20)
(-0.127874 0.259333 -1.09104e-19)
(-0.317498 0.429399 1.02858e-19)
(-0.321532 0.501543 -8.1161e-20)
(-0.181808 0.525944 -6.69259e-21)
(0.011931 0.534841 1.84526e-20)
(0.178408 0.536332 -4.60892e-20)
(0.282284 0.527267 -4.85312e-20)
(0.361882 0.511061 0)
(0.444689 0.492431 -3.88168e-20)
(0.522856 0.471593 -7.82434e-21)
(0.591065 0.451387 1.45356e-20)
(0.652216 0.435517 -3.70221e-20)
(0.706896 0.421059 2.87254e-20)
(0.235652 0.0366096 -9.81654e-21)
(-0.196057 0.31328 5.81603e-20)
(-0.253189 0.4151 5.69065e-20)
(-0.179007 0.458929 4.93675e-20)
(-0.0141235 0.470163 -3.70548e-20)
(0.149261 0.478846 4.20625e-20)
(0.254856 0.484446 1.12717e-20)
(0.332778 0.482003 -1.59211e-20)
(0.415758 0.47641 7.43267e-21)
(0.497749 0.468165 6.78445e-21)
(0.57189 0.459203 0)
(0.639724 0.453217 3.00244e-21)
(0.701261 0.44536 -2.89536e-21)
(0.51243 -0.101724 -3.38873e-21)
(0.14372 0.105252 -3.15059e-20)
(-0.166609 0.330559 0)
(-0.151937 0.393832 -1.64027e-20)
(-0.0268601 0.411084 2.61303e-20)
(0.128866 0.416895 -1.31761e-20)
(0.238545 0.428497 -3.14912e-20)
(0.315442 0.437183 1.15351e-20)
(0.395769 0.441006 -1.58823e-20)
(0.477915 0.440717 4.96624e-21)
(0.553962 0.43954 -1.56749e-20)
(0.624005 0.441619 1.25583e-21)
(0.688831 0.440908 -1.19779e-21)
(0.703049 -0.174209 -1.06397e-21)
(0.430603 -0.040395 0)
(0.0898747 0.161919 -8.57762e-21)
(-0.092691 0.321542 4.3936e-20)
(-0.0288808 0.357035 -2.2985e-21)
(0.11072 0.357766 -1.773e-20)
(0.230542 0.365787 6.7319e-21)
(0.309725 0.382044 -5.6669e-21)
(0.384336 0.394251 -3.26571e-21)
(0.463377 0.399764 1.14321e-20)
(0.539485 0.403733 1.44696e-20)
(0.609819 0.411791 -2.08391e-20)
(0.675519 0.417352 8.85973e-22)
(0.833982 -0.207335 -6.00833e-21)
(0.63729 -0.122413 8.85799e-22)
(0.368445 0.0168013 0)
(0.0770626 0.198284 1.64925e-21)
(-0.0053636 0.297404 -9.46984e-22)
(0.0919332 0.308577 -1.10509e-20)
(0.222955 0.307959 -7.4687e-21)
(0.314418 0.322974 0)
(0.383483 0.341109 -1.17995e-21)
(0.455384 0.352146 -8.85628e-21)
(0.529372 0.359806 0)
(0.599183 0.371658 2.21078e-20)
(0.664414 0.381957 0)
(0.923987 -0.217686 -1.26673e-20)
(0.782063 -0.163845 1.83796e-20)
(0.583527 -0.0737328 -1.81886e-20)
(0.323405 0.0634979 1.27688e-20)
(0.0931818 0.21144 0)
(0.0836255 0.263841 1.3663e-20)
(0.205606 0.263908 -1.24473e-20)
(0.317644 0.269734 0)
(0.391139 0.286903 1.24449e-21)
(0.455578 0.302082 -6.63895e-21)
(0.524317 0.312843 4.44519e-23)
(0.592531 0.326746 -4.09081e-23)
(0.656692 0.340041 0)
(0.985878 -0.215151 9.68694e-22)
(0.882761 -0.181247 3.73088e-21)
(0.738162 -0.123437 8.6598e-21)
(0.537468 -0.0317113 0)
(0.288567 0.0977362 0)
(0.139266 0.203568 5.17244e-20)
(0.191837 0.227739 7.32175e-21)
(0.310177 0.227704 0)
(0.399322 0.237447 -1.73459e-20)
(0.46275 0.252846 6.92968e-21)
(0.524835 0.265932 0)
(0.589713 0.280798 -1.67557e-22)
(0.652472 0.295532 1.54672e-22)
(1.02842 -0.20557 2.37368e-20)
(0.952866 -0.184456 -2.58229e-20)
(0.847226 -0.147376 0)
(0.697826 -0.0875879 0)
(0.493177 0.00472652 -2.78569e-20)
(0.279583 0.117631 2.92011e-21)
(0.215202 0.183655 -5.67323e-20)
(0.297023 0.193745 3.20564e-20)
(0.399587 0.195933 1.85712e-20)
(0.472039 0.207117 -3.82929e-20)
(0.530409 0.220843 1.48268e-21)
(0.590511 0.236107 -1.35383e-21)
(0.651263 0.251175 -1.63204e-20)
(1.05772 -0.192505 -1.99184e-20)
(1.00186 -0.179559 2.59641e-20)
(0.924131 -0.155806 -1.00882e-21)
(0.813781 -0.116779 -1.42694e-20)
(0.656913 -0.0550235 4.96219e-20)
(0.457798 0.0335116 0)
(0.299334 0.122374 3.00535e-20)
(0.300733 0.158468 -3.27104e-20)
(0.392086 0.161816 6.14107e-20)
(0.477509 0.166821 4.59109e-20)
(0.53896 0.178628 -4.43551e-20)
(0.594777 0.193818 3.01598e-20)
(0.65258 0.208721 1.83655e-20)
(1.07791 -0.178129 0)
(1.03626 -0.170396 -2.75095e-20)
(0.978623 -0.155266 3.19308e-20)
(0.896938 -0.129778 3.89022e-20)
(0.779458 -0.0889294 -7.61747e-20)
(0.61822 -0.0269989 -3.84258e-20)
(0.436388 0.0532271 -1.30852e-20)
(0.343204 0.115596 3.62397e-20)
(0.387747 0.131728 -8.16696e-20)
(0.476175 0.133361 -6.67299e-21)
(0.546911 0.14074 4.72482e-20)
(0.601991 0.154653 -3.29917e-20)
(0.656238 0.169183 3.14501e-20)
(1.09184 -0.163707 0)
(1.0605 -0.159286 8.00272e-21)
(1.01739 -0.149771 -1.63922e-21)
(0.956505 -0.133181 1.17834e-20)
(0.868864 -0.106233 5.25559e-22)
(0.744499 -0.0644221 5.83771e-20)
(0.58416 -0.00417772 1.06651e-20)
(0.435839 0.0635425 -5.93897e-20)
(0.404806 0.100671 7.27995e-20)
(0.471523 0.106356 0)
(0.550541 0.108856 -6.23578e-21)
(0.610355 0.119436 5.55356e-21)
(0.662124 0.133173 -3.25448e-20)
(1.10142 -0.149917 -1.40334e-20)
(1.07756 -0.147579 -1.72541e-20)
(1.045 -0.141725 -1.02753e-21)
(0.999221 -0.131005 2.21303e-20)
(0.933519 -0.113247 2.66843e-20)
(0.839104 -0.0852689 -6.00483e-20)
(0.709548 -0.0431711 -3.52835e-20)
(0.559564 0.0130409 5.677e-20)
(0.458159 0.0638936 -1.50845e-20)
(0.474191 0.0824386 6.6357e-20)
(0.548638 0.0836559 -5.72149e-20)
(0.616809 0.0892026 0)
(0.669558 0.100907 -4.074e-20)
(1.10798 -0.137097 6.78197e-21)
(1.08955 -0.136053 1.59764e-20)
(1.06468 -0.132575 -1.00176e-20)
(1.0299 -0.125735 -2.17344e-20)
(0.980216 -0.114074 0)
(0.908635 -0.0954084 2.78399e-20)
(0.80754 -0.0666615 1.32454e-21)
(0.677419 -0.0252278 -2.74208e-20)
(0.549224 0.0233739 -6.10935e-20)
(0.498666 0.0568583 -6.0939e-20)
(0.54532 0.0636272 -7.27657e-21)
(0.618184 0.0650637 6.50552e-21)
(0.676667 0.0726356 4.21888e-20)
(1.11244 -0.125377 0)
(1.09795 -0.125126 -7.81624e-21)
(1.07868 -0.123185 -1.83858e-20)
(1.05195 -0.118915 9.29728e-21)
(1.01397 -0.111322 0)
(0.959374 -0.0989093 -2.34777e-20)
(0.881385 -0.0794708 2.83885e-20)
(0.775474 -0.0502999 3.24994e-20)
(0.651859 -0.01154 -3.75914e-20)
(0.555736 0.027203 0)
(0.551968 0.045072 1.22517e-19)
(0.614534 0.0471098 4.85619e-20)
(0.680303 0.0489594 -2.88189e-21)
(1.11542 -0.114771 -5.77413e-21)
(1.10378 -0.114994 1.32976e-20)
(1.0886 -0.114046 0)
(1.06776 -0.111478 0)
(1.03835 -0.106609 1.87939e-20)
(0.996299 -0.0984021 3.39659e-20)
(0.936105 -0.0853404 -5.85467e-21)
(0.852185 -0.0651868 -1.37219e-20)
(0.745145 -0.0367066 7.97436e-20)
(0.636608 -0.00195704 2.80776e-20)
(0.579967 0.0244379 -5.61321e-20)
(0.612413 0.0332778 -4.66342e-20)
(0.678355 0.0304097 -6.13518e-40)
(1.11735 -0.105228 -1.08033e-20)
(1.10776 -0.105726 -1.09988e-21)
(1.09555 -0.105415 0)
(1.07904 -0.103974 0)
(1.05593 -0.100934 -3.54824e-20)
(1.02313 -0.0955653 -1.86883e-20)
(0.976332 -0.0868448 0)
(0.910412 -0.0730434 0)
(0.822216 -0.0529001 -6.12095e-20)
(0.719587 -0.0253006 -5.55121e-20)
(0.635234 0.00169466 4.78091e-21)
(0.62046 0.0202294 -5.78274e-21)
(0.672944 0.0164942 0)
(1.1185 -0.0966651 -4.49288e-21)
(1.11039 -0.0973168 -6.60092e-21)
(1.10034 -0.0974114 0)
(1.08699 -0.0967165 7.4246e-21)
(1.06854 -0.0949098 2.04652e-21)
(1.04257 -0.0914649 9.64212e-22)
(1.00579 -0.0857017 9.41726e-21)
(0.953914 -0.0763032 2.01696e-20)
(0.882843 -0.0623602 4.7031e-20)
(0.79351 -0.0416495 5.32709e-20)
(0.702367 -0.0187032 0)
(0.650732 0.00476068 0)
(0.669968 0.00559079 0)
(1.11906 -0.0889875 1.90061e-20)
(1.11201 -0.0897216 0)
(1.10352 -0.0900724 -6.0698e-21)
(1.09248 -0.0898721 6.29488e-21)
(1.07746 -0.0888981 1.50622e-20)
(1.05656 -0.0867618 -1.48125e-20)
(1.02725 -0.0830263 2.0509e-20)
(0.986117 -0.0766663 -1.94806e-20)
(0.929246 -0.0671606 -1.92255e-21)
(0.85461 -0.052081 -5.11029e-20)
(0.768723 -0.0343324 2.79981e-20)
(0.697891 -0.0111486 -3.76162e-21)
(0.68057 -0.00521165 0)
(1.11916 -0.0820962 -8.9194e-21)
(1.11287 -0.0828741 9.25072e-21)
(1.10549 -0.0833841 0)
(1.09614 -0.0835114 1.10524e-20)
(1.08365 -0.0831006 0)
(1.06652 -0.081859 1.47063e-20)
(1.04278 -0.0795184 -1.59796e-20)
(1.00977 -0.0752638 -1.55269e-20)
(0.964158 -0.0688768 -1.90343e-21)
(0.902976 -0.0580933 2.05781e-20)
(0.827456 -0.0450948 -2.28769e-20)
(0.75181 -0.024998 -1.54769e-21)
(0.707248 -0.0163094 1.76019e-21)
(1.11888 -0.0758979 -1.48969e-20)
(1.11314 -0.0766956 0)
(1.10654 -0.0773025 0)
(1.0984 -0.0776464 -5.69151e-21)
(1.08777 -0.0776173 2.80957e-22)
(1.07345 -0.0769924 -1.76809e-20)
(1.05387 -0.0756101 3.39662e-21)
(1.02699 -0.0728242 1.17577e-20)
(0.990102 -0.0686137 -1.65246e-20)
(0.940234 -0.0609978 1.60402e-20)
(0.876168 -0.0518168 -2.32846e-21)
(0.804317 -0.0356542 2.57767e-21)
(0.745191 -0.026641 0)
(1.11828 -0.0703023 7.39553e-21)
(1.11292 -0.0711054 0)
(1.10687 -0.0717731 4.36931e-21)
(1.0996 -0.0722582 4.26264e-21)
(1.09033 -0.0724871 0)
(1.07808 -0.0722855 1.30188e-21)
(1.06162 -0.0715658 -1.11226e-20)
(1.03936 -0.0698055 0)
(1.00915 -0.0671126 -1.63356e-20)
(0.968385 -0.0617954 -1.19682e-20)
(0.91495 -0.0554963 2.00411e-21)
(0.850819 -0.0430652 -2.17367e-21)
(0.787441 -0.0351895 0)
(1.11739 -0.0652288 5.9342e-21)
(1.1123 -0.0660296 -1.36494e-20)
(1.10663 -0.0667338 3.47535e-21)
(1.09996 -0.0673087 -1.2548e-20)
(1.09167 -0.0677098 -3.867e-21)
(1.08096 -0.0677979 6.39574e-22)
(1.06684 -0.0675369 2.5945e-20)
(1.04805 -0.066493 0)
(1.02293 -0.0648562 9.69269e-21)
(0.98932 -0.0611959 3.15195e-21)
(0.944961 -0.0569983 0)
(0.889614 -0.0477008 0)
(0.828465 -0.0415233 0)
(1.11625 -0.0606066 -1.13489e-20)
(1.11134 -0.0614001 2.17515e-22)
(1.10593 -0.0621224 9.99046e-21)
(1.09968 -0.0627521 4.22539e-21)
(1.09209 -0.063266 4.39347e-21)
(1.0825 -0.0635514 1.21845e-20)
(1.07013 -0.063604 -9.75598e-21)
(1.05397 -0.0630622 6.71446e-21)
(1.03271 -0.062157 2.56502e-21)
(1.00464 -0.0596872 0)
(0.967689 -0.0569908 0)
(0.920679 -0.0501601 1.20453e-20)
(0.865015 -0.0456949 0)
(1.11489 -0.0563739 -5.10771e-21)
(1.1101 -0.0571551 5.29607e-21)
(1.10485 -0.0578834 3.04758e-21)
(1.09888 -0.0585431 -3.1496e-21)
(1.09178 -0.0591294 0)
(1.08302 -0.0595436 -4.78339e-21)
(1.07195 -0.0598097 -3.61119e-21)
(1.05776 -0.0596184 -9.15982e-21)
(1.03944 -0.0592158 0)
(1.01562 -0.0575972 -6.6573e-21)
(0.984568 -0.0559615 -2.54404e-21)
(0.944824 -0.0510028 -1.37737e-21)
(0.895764 -0.048015 0)
(1.11332 -0.0524776 0)
(1.10861 -0.0532425 0)
(1.10346 -0.0539684 -2.68502e-21)
(1.09766 -0.0546406 2.77479e-21)
(1.0909 -0.0552691 0)
(1.08273 -0.0557642 -7.04402e-21)
(1.07263 -0.0561714 9.29156e-22)
(1.05993 -0.0562226 0)
(1.04385 -0.0561626 0)
(1.02329 -0.055149 1.29989e-20)
(0.996856 -0.0542538 9.53644e-21)
(0.963143 -0.050687 -2.0219e-20)
(0.920595 -0.0488693 9.52922e-21)
(1.11586 -0.0480925 3.50212e-22)
(1.11157 -0.0488744 3.97118e-21)
(1.10691 -0.0496187 -4.11848e-21)
(1.10181 -0.0503354 0)
(1.09612 -0.051008 0)
(1.08958 -0.0516553 2.74194e-21)
(1.08183 -0.0522003 -2.82305e-21)
(1.07244 -0.0526941 6.60144e-21)
(1.06087 -0.0529113 0)
(1.04648 -0.0530812 -1.76156e-21)
(1.02842 -0.0524955 1.31243e-21)
(1.00558 -0.0521106 -9.30903e-21)
(0.976732 -0.0495664 9.78993e-21)
(0.940034 -0.0486231 -9.31571e-21)
(1.13404 -0.0374023 -1.02619e-23)
(1.13255 -0.038432 4.98613e-21)
(1.13088 -0.0394384 -2.39226e-21)
(1.12897 -0.0404166 -3.74231e-22)
(1.12675 -0.0413642 -4.3941e-22)
(1.12418 -0.0422785 4.72522e-21)
(1.12119 -0.0431515 2.33187e-21)
(1.11777 -0.0439837 5.83753e-21)
(1.11392 -0.0447756 -2.98182e-21)
(1.10967 -0.0455287 -3.48067e-21)
(1.10502 -0.0462491 -3.66602e-21)
(1.09994 -0.0469502 3.93541e-21)
(1.0943 -0.0476151 0)
(1.0879 -0.0482648 -2.39683e-21)
(1.08045 -0.0488367 2.46702e-21)
(1.07158 -0.04938 -5.03078e-21)
(1.06086 -0.0497061 0)
(1.04776 -0.050028 1.53424e-21)
(1.03162 -0.0497429 -3.38248e-21)
(1.01156 -0.0497045 -1.65888e-21)
(0.986574 -0.0479072 -6.19137e-21)
(0.954861 -0.0475869 -4.61936e-22)
(1.13204 -0.0348291 0)
(1.13051 -0.0357715 4.34965e-21)
(1.1288 -0.0366954 -2.37618e-21)
(1.12685 -0.0375976 -3.60633e-22)
(1.12463 -0.0384753 -3.68407e-22)
(1.12206 -0.0393275 3.70908e-21)
(1.11909 -0.0401468 -2.33262e-21)
(1.1157 -0.0409342 0)
(1.11187 -0.0416881 0)
(1.10763 -0.0424116 -2.76664e-21)
(1.10298 -0.0431067 6.7948e-21)
(1.09789 -0.0437863 -1.94286e-21)
(1.09227 -0.0444379 2.4451e-22)
(1.08595 -0.0450791 -2.00475e-21)
(1.0787 -0.0456601 0)
(1.07021 -0.0462288 2.65444e-21)
(1.06012 -0.0466219 2.4397e-21)
(1.04801 -0.0470419 0)
(1.03335 -0.0469652 0)
(1.01544 -0.0471576 -3.46944e-21)
(0.993489 -0.0459039 6.95542e-21)
(0.965899 -0.0460107 6.43988e-21)
(1.1301 -0.03242 -2.92025e-21)
(1.12851 -0.0332849 -3.78603e-21)
(1.12675 -0.0341349 -2.06581e-21)
(1.12476 -0.0349686 -2.70241e-21)
(1.1225 -0.0357835 -3.58906e-22)
(1.11991 -0.0365781 0)
(1.11694 -0.0373475 -1.75997e-21)
(1.11355 -0.0380919 -2.17454e-21)
(1.10973 -0.038808 2.26328e-21)
(1.10548 -0.0395011 -2.26768e-21)
(1.10081 -0.0401691 2.7382e-21)
(1.09569 -0.0408249 -3.29552e-21)
(1.09006 -0.0414579 3.56457e-21)
(1.08378 -0.0420844 0)
(1.07666 -0.0426618 -3.55608e-21)
(1.06844 -0.0432383 0)
(1.05882 -0.0436711 -1.09538e-21)
(1.04746 -0.0441494 1.12064e-21)
(1.03394 -0.0442173 -1.21867e-21)
(1.0177 -0.0445584 4.60611e-21)
(0.998138 -0.0437006 -6.52819e-22)
(0.973896 -0.0440874 -5.98677e-21)
(1.12821 -0.0301635 1.45812e-21)
(1.12656 -0.0309586 3.40169e-23)
(1.12473 -0.0317425 3.86247e-21)
(1.12268 -0.0325141 0)
(1.12037 -0.0332718 2.36153e-21)
(1.11775 -0.0340133 -2.68608e-21)
(1.11475 -0.0347357 3.44764e-21)
(1.11134 -0.0354386 -1.75809e-21)
(1.1075 -0.0361181 2.07651e-21)
(1.10322 -0.03678 -4.10575e-21)
(1.09852 -0.0374205 1.04963e-22)
(1.09336 -0.0380507 3.81454e-21)
(1.0877 -0.0386622 -1.39801e-21)
(1.08143 -0.0392695 -2.8672e-21)
(1.07438 -0.0398353 1.88268e-21)
(1.06636 -0.0404084 3.36087e-21)
(1.05709 -0.0408624 7.89647e-22)
(1.0463 -0.0413713 1.96995e-21)
(1.03366 -0.0415397 -2.957e-21)
(1.01872 -0.0419727 5.52535e-22)
(1.00104 -0.0414034 -8.52171e-22)
(0.979494 -0.0419645 2.52764e-21)
(1.12637 -0.0280489 1.2142e-21)
(1.12464 -0.0287812 -1.27271e-21)
(1.12274 -0.0295055 -2.21808e-22)
(1.12062 -0.0302208 1.78929e-21)
(1.11824 -0.0309257 -2.36187e-21)
(1.11556 -0.0316186 2.68721e-21)
(1.11251 -0.0322968 0)
(1.10907 -0.03296 1.61089e-21)
(1.10519 -0.0336046 -3.46029e-21)
(1.10088 -0.0342351 1.96262e-21)
(1.09612 -0.0348479 2.15792e-21)
(1.09091 -0.035452 1.86541e-21)
(1.08521 -0.03604 -2.28683e-21)
(1.07892 -0.0366254 5.33554e-21)
(1.07192 -0.0371761 2.63896e-21)
(1.06402 -0.0377382 -3.18043e-21)
(1.05501 -0.0382016 -1.61737e-22)
(1.04466 -0.0387227 1.58e-21)
(1.03269 -0.0389601 3.59963e-21)
(1.01878 -0.0394479 0)
(1.00258 -0.0390892 -2.49e-22)
(0.983209 -0.0397514 -1.96914e-21)
(1.12457 -0.026067 0)
(1.12275 -0.0267424 1.21352e-21)
(1.12077 -0.0274128 -1.52177e-21)
(1.11857 -0.0280767 1.66982e-21)
(1.11611 -0.0287333 -3.6659e-21)
(1.11336 -0.0293815 2.00566e-21)
(1.11025 -0.0300186 0)
(1.10675 -0.0306438 -2.59489e-21)
(1.10282 -0.0312551 4.30998e-21)
(1.09845 -0.0318549 -1.58062e-21)
(1.09364 -0.0324406 -1.65067e-21)
(1.08837 -0.0330188 -1.31172e-21)
(1.08261 -0.0335832 5.27169e-21)
(1.07628 -0.0341455 -2.4681e-21)
(1.06929 -0.0346796 -1.62947e-21)
(1.06147 -0.0352269 1.27329e-21)
(1.05264 -0.0356914 -7.00993e-22)
(1.04262 -0.0362147 -8.66064e-22)
(1.03118 -0.0364992 -1.66514e-21)
(1.01808 -0.0370156 1.49574e-21)
(1.00306 -0.036814 -1.56346e-21)
(0.985445 -0.0375251 0)
(1.12456 -0.0235824 0)
(1.1228 -0.0242091 -1.48869e-21)
(1.1209 -0.024833 8.57591e-22)
(1.11881 -0.0254544 -1.41252e-21)
(1.11652 -0.0260716 2.63198e-21)
(1.11398 -0.0266842 -5.85649e-23)
(1.11114 -0.0272907 0)
(1.10796 -0.0278896 1.216e-22)
(1.10438 -0.0284794 1.30422e-21)
(1.10039 -0.029059 -1.42397e-21)
(1.09595 -0.0296297 -2.6849e-21)
(1.09107 -0.0301893 1.73175e-21)
(1.08572 -0.030742 -2.64961e-21)
(1.0799 -0.0312833 -1.99677e-21)
(1.07353 -0.0318233 2.72851e-21)
(1.06651 -0.03234 -2.26047e-21)
(1.05873 -0.0328708 1.02265e-21)
(1.05003 -0.0333325 0)
(1.04024 -0.033851 -6.32089e-22)
(1.02922 -0.0341675 1.30942e-21)
(1.01677 -0.0346951 -3.44603e-21)
(1.00271 -0.0346118 2.31762e-22)
(0.986511 -0.035339 0)
(1.12292 -0.0218886 -5.04672e-22)
(1.12107 -0.0224668 6.83162e-22)
(1.11906 -0.0230442 1.42499e-22)
(1.11688 -0.023621 -2.81306e-21)
(1.11449 -0.0241956 1.00958e-21)
(1.11184 -0.0247679 -1.39612e-21)
(1.10891 -0.0253359 0)
(1.10563 -0.0258996 9.12614e-22)
(1.10197 -0.0264563 0)
(1.09789 -0.0270063 -1.14672e-21)
(1.09338 -0.0275494 1.13765e-21)
(1.08841 -0.0280836 2.77244e-21)
(1.08299 -0.0286121 -1.35353e-21)
(1.07709 -0.0291311 0)
(1.07065 -0.0296502 -1.78804e-21)
(1.0636 -0.0301498 0)
(1.05582 -0.0306636 -1.02514e-21)
(1.04719 -0.0311209 0)
(1.03759 -0.0316298 -5.36288e-22)
(1.02689 -0.0319685 1.28872e-21)
(1.01497 -0.0324961 1.56128e-21)
(1.00168 -0.0325035 4.9933e-23)
(0.986632 -0.0332257 1.33304e-21)
(1.12132 -0.0202981 5.381e-22)
(1.11936 -0.0208324 8.97008e-22)
(1.11725 -0.0213675 3.25171e-23)
(1.11496 -0.0219036 6.55593e-22)
(1.11245 -0.0224392 -7.62774e-22)
(1.1097 -0.0229746 1.06949e-21)
(1.10666 -0.0235074 -1.11893e-21)
(1.10328 -0.0240385 9.47464e-23)
(1.09952 -0.0245646 -1.53033e-21)
(1.09534 -0.0250868 8.28699e-22)
(1.09073 -0.0256037 -1.88833e-22)
(1.08568 -0.0261135 1.16781e-21)
(1.08016 -0.0266194 0)
(1.07417 -0.0271177 0)
(1.06766 -0.0276166 -1.24966e-21)
(1.06054 -0.0281005 0)
(1.05274 -0.028598 0)
(1.04415 -0.0290485 -1.19515e-21)
(1.03468 -0.0295465 7.20734e-23)
(1.02424 -0.0298995 -1.72477e-21)
(1.01274 -0.0304201 -8.07366e-24)
(1.00008 -0.0304989 2.32541e-21)
(0.985975 -0.0312023 -1.17571e-21)
(1.11975 -0.0188041 -8.75991e-22)
(1.11768 -0.0192984 -6.38004e-22)
(1.11545 -0.0197949 0)
(1.11305 -0.0202939 -4.66743e-22)
(1.11043 -0.0207939 1.34502e-21)
(1.10755 -0.0212953 -7.03876e-22)
(1.10439 -0.0217957 8.32869e-22)
(1.1009 -0.0222964 6.10628e-22)
(1.09702 -0.0227943 1.19989e-21)
(1.09274 -0.0232902 -4.28276e-23)
(1.08802 -0.023782 -2.38601e-21)
(1.08286 -0.0242693 5.48932e-23)
(1.07725 -0.0247536 0)
(1.07115 -0.0252325 -5.34468e-22)
(1.06454 -0.0257131 1.8046e-21)
(1.05735 -0.0261818 6.23576e-22)
(1.0495 -0.0266642 -6.39992e-22)
(1.04092 -0.0271061 7.70599e-22)
(1.03154 -0.0275918 1.49423e-21)
(1.0213 -0.027954 0)
(1.01014 -0.0284636 -7.53334e-22)
(0.997998 -0.0285988 -1.73553e-21)
(0.984649 -0.0292786 -3.95122e-40)
(1.1182 -0.0173995 -1.5366e-22)
(1.11602 -0.0178573 1.87775e-23)
(1.11368 -0.0183184 2.5143e-22)
(1.11114 -0.0187835 4.66944e-22)
(1.1084 -0.0192508 -1.1198e-21)
(1.1054 -0.0197207 1.91809e-21)
(1.10211 -0.0201915 -1.51462e-21)
(1.09848 -0.020664 4.46895e-22)
(1.09448 -0.0211357 -5.10832e-22)
(1.09008 -0.0216065 -1.16467e-21)
(1.08524 -0.022075 1.46133e-22)
(1.07997 -0.0225409 6.33854e-23)
(1.07424 -0.0230055 1.1483e-21)
(1.06803 -0.023466 -8.48556e-22)
(1.06131 -0.02393 -8.59649e-22)
(1.05401 -0.0243842 4.87959e-22)
(1.0461 -0.0248517 4.87866e-22)
(1.03751 -0.0252847 2.93634e-22)
(1.02819 -0.0257568 -6.66701e-22)
(1.0181 -0.0261246 -3.17309e-22)
(1.00722 -0.0266218 1.33611e-22)
(0.995475 -0.0268035 1.38432e-22)
(0.982723 -0.0274582 -3.28404e-40)
(1.11668 -0.0160779 -5.75455e-24)
(1.11438 -0.0165022 1.3488e-22)
(1.11191 -0.0169312 -3.54083e-22)
(1.10925 -0.017365 5.18412e-22)
(1.10637 -0.0178022 -9.78228e-22)
(1.10323 -0.0182432 4.02624e-22)
(1.0998 -0.0186867 0)
(1.09604 -0.019133 -3.41428e-22)
(1.0919 -0.0195801 2.88706e-22)
(1.08737 -0.0200273 -4.02592e-23)
(1.0824 -0.0204741 1.47063e-21)
(1.07699 -0.0209197 0)
(1.07113 -0.0213661 0)
(1.0648 -0.0218098 0)
(1.05794 -0.0222579 1.22088e-21)
(1.05054 -0.0226983 -3.9369e-22)
(1.04255 -0.0231512 -7.12951e-22)
(1.03392 -0.0235749 -1.06819e-23)
(1.02463 -0.0240334 2.44203e-22)
(1.01466 -0.0244046 4.79065e-22)
(1.00397 -0.0248897 1.27158e-21)
(0.992529 -0.0251115 1.11531e-21)
(0.980228 -0.0257433 -7.52873e-23)
(1.11518 -0.0148332 -1.66338e-23)
(1.11276 -0.015227 3.13985e-23)
(1.11016 -0.0156264 -3.57658e-23)
(1.10736 -0.0160316 9.778e-23)
(1.10434 -0.016441 2.84486e-22)
(1.10106 -0.0168556 0)
(1.09748 -0.0172739 4.12051e-22)
(1.09356 -0.0176957 -2.36134e-22)
(1.08928 -0.0181196 -3.35379e-23)
(1.0846 -0.0185449 -3.71636e-22)
(1.07949 -0.0189717 -4.72161e-22)
(1.07394 -0.0193989 4.09001e-22)
(1.06793 -0.0198281 0)
(1.06145 -0.0202564 0)
(1.05446 -0.0206897 3.02836e-22)
(1.04693 -0.0211164 -2.62777e-23)
(1.03884 -0.0215556 0)
(1.03017 -0.02197 1.92189e-22)
(1.02088 -0.0224158 3.69293e-22)
(1.01096 -0.0227902 -1.0731e-21)
(1.00039 -0.0232656 -1.00811e-22)
(0.989155 -0.0235233 -1.04347e-22)
(0.977169 -0.0241356 -2.2023e-40)
(1.11371 -0.01366 -2.66483e-22)
(1.11115 -0.0140258 0)
(1.10841 -0.0143982 3.57911e-23)
(1.10547 -0.014777 -9.08767e-23)
(1.1023 -0.0151611 0)
(1.09886 -0.0155514 2.00308e-22)
(1.09513 -0.0159464 -2.88615e-23)
(1.09106 -0.0163454 -3.66007e-22)
(1.08662 -0.0167478 1.78268e-22)
(1.08177 -0.0171532 -2.81348e-22)
(1.0765 -0.0175619 -2.31601e-22)
(1.07079 -0.0179723 -6.03509e-22)
(1.06462 -0.0183858 3.4285e-23)
(1.05798 -0.0187995 -3.52126e-22)
(1.05084 -0.0192188 0)
(1.04318 -0.0196329 -2.47762e-22)
(1.03499 -0.0200588 -2.63581e-22)
(1.02623 -0.0204648 0)
(1.0169 -0.0209004 -6.42254e-22)
(1.00699 -0.0212788 3.84962e-22)
(0.996464 -0.0217479 -5.00314e-22)
(0.985325 -0.0220397 -3.36931e-22)
(0.973537 -0.022637 0)
(1.11225 -0.012553 2.66529e-22)
(1.10956 -0.0128934 1.47925e-22)
(1.10667 -0.0132411 0)
(1.10358 -0.0135958 -7.01553e-24)
(1.10026 -0.0139569 0)
(1.09666 -0.0143249 8.9846e-23)
(1.09275 -0.0146983 -2.75635e-22)
(1.08852 -0.0150763 1.02436e-22)
(1.0839 -0.0154595 -1.07096e-22)
(1.07888 -0.0158471 -1.19439e-22)
(1.07343 -0.0162395 3.8278e-22)
(1.06754 -0.0166345 2.71656e-22)
(1.0612 -0.0170336 9.62792e-23)
(1.05439 -0.0174337 7.58562e-22)
(1.04709 -0.0178401 -1.60113e-22)
(1.03928 -0.0182425 3.79e-22)
(1.03096 -0.0186571 -2.84179e-22)
(1.02209 -0.0190568 2.24895e-22)
(1.01268 -0.0194855 1.63775e-22)
(1.00269 -0.0198701 -6.74348e-23)
(0.992132 -0.0203377 1.40255e-22)
(0.981004 -0.0206611 -7.26335e-23)
(0.969318 -0.0212479 -2.79016e-22)
(1.11081 -0.0115073 -8.1908e-22)
(1.10797 -0.0118247 2.41892e-22)
(1.10494 -0.0121498 -2.88412e-22)
(1.10169 -0.0124827 1.27639e-22)
(1.0982 -0.012823 1.00899e-22)
(1.09443 -0.0131706 -4.27445e-24)
(1.09035 -0.013524 4.48198e-24)
(1.08594 -0.0138833 4.41659e-23)
(1.08113 -0.0142498 -4.61856e-23)
(1.07591 -0.0146219 2.37581e-23)
(1.07027 -0.0149994 -5.0797e-23)
(1.0642 -0.0153804 1.53053e-22)
(1.05767 -0.0157663 -1.67888e-22)
(1.05067 -0.0161539 -1.01041e-22)
(1.04319 -0.0165486 -1.23506e-23)
(1.03522 -0.0169413 -3.42438e-23)
(1.02673 -0.017347 1.78524e-22)
(1.01771 -0.0177434 5.40124e-23)
(1.00815 -0.0181697 1.80917e-22)
(0.998023 -0.0185632 -9.51377e-23)
(0.98735 -0.019033 1.83237e-22)
(0.976163 -0.0193863 -2.91897e-23)
(0.964524 -0.019963 3.09064e-22)
(1.10938 -0.0105179 0)
(1.10639 -0.0108143 3.49572e-23)
(1.10321 -0.011119 3.78683e-22)
(1.09979 -0.0114323 -1.89599e-22)
(1.09612 -0.0117538 -1.01112e-22)
(1.09218 -0.0120826 0)
(1.08792 -0.0124181 2.43089e-23)
(1.0833 -0.0127614 9.6533e-24)
(1.07828 -0.0131136 0)
(1.07286 -0.0134719 0)
(1.06702 -0.0138359 5.84347e-23)
(1.06074 -0.0142041 -6.07891e-23)
(1.05401 -0.0145782 1.3477e-22)
(1.04681 -0.0149548 -2.28738e-22)
(1.03913 -0.0153396 1.46695e-22)
(1.03096 -0.0157253 1.09168e-23)
(1.02227 -0.016126 -1.47112e-22)
(1.01304 -0.0165227 -1.45772e-22)
(1.00325 -0.0169512 6.05952e-23)
(0.99292 -0.0173561 -3.64226e-23)
(0.982077 -0.0178303 -1.47039e-22)
(0.970801 -0.0182086 1.61677e-22)
(0.959214 -0.0187726 1.30535e-22)
(1.10796 -0.00957961 5.11591e-22)
(1.10482 -0.00985705 -5.36473e-22)
(1.10147 -0.0101434 -4.71007e-22)
(1.09788 -0.0104392 4.21149e-22)
(1.09403 -0.0107434 -2.14778e-22)
(1.0899 -0.0110553 0)
(1.08543 -0.0113756 0)
(1.08059 -0.0117058 -3.52393e-23)
(1.07535 -0.0120453 0)
(1.06971 -0.012391 0)
(1.06366 -0.0127427 0)
(1.05716 -0.0130994 1.06683e-23)
(1.05021 -0.0134628 -5.91132e-24)
(1.04279 -0.0138307 -1.16348e-23)
(1.03488 -0.0142085 4.10722e-23)
(1.02646 -0.0145905 -7.30241e-23)
(1.0175 -0.0149905 -3.14326e-23)
(1.00799 -0.0153918 3.21488e-23)
(0.997925 -0.0158259 0)
(0.987337 -0.016243 -7.13399e-23)
(0.976306 -0.0167213 0)
(0.964974 -0.0171159 -1.25876e-22)
(0.953529 -0.0176584 -1.6749e-22)
(1.10654 -0.00868708 0)
(1.10324 -0.00894747 -2.93121e-22)
(1.09972 -0.00921762 -2.82485e-22)
(1.09595 -0.00949759 0)
(1.09191 -0.00978606 2.15373e-22)
(1.08758 -0.0100833 0)
(1.08288 -0.0103916 -1.12456e-22)
(1.0778 -0.0107108 1.03264e-22)
(1.07233 -0.0110387 9.3217e-23)
(1.06647 -0.0113726 0)
(1.06019 -0.0117131 0)
(1.05345 -0.0120598 -1.49227e-23)
(1.04626 -0.0124148 1.76065e-23)
(1.03857 -0.0127766 4.13277e-24)
(1.03038 -0.0131511 7.8211e-24)
(1.02165 -0.0135338 3.09004e-23)
(1.01236 -0.0139374 7.97105e-24)
(1.00251 -0.0143464 -1.62396e-23)
(0.992118 -0.0147883 0)
(0.981267 -0.0152154 8.53112e-23)
(0.970095 -0.0156925 -1.38105e-23)
(0.95882 -0.0160901 0)
(0.947715 -0.0165973 -7.19108e-41)
(1.10512 -0.00783518 -6.45984e-22)
(1.10166 -0.00808051 -1.87708e-23)
(1.09795 -0.00833635 2.83158e-22)
(1.094 -0.008602 -2.7474e-22)
(1.08976 -0.0088767 5.79605e-22)
(1.08519 -0.00916257 0)
(1.08025 -0.00946141 -2.18963e-23)
(1.07492 -0.00977059 -1.03691e-22)
(1.06922 -0.0100872 -7.46885e-23)
(1.06312 -0.0104101 -9.99381e-23)
(1.05659 -0.0107409 1.19393e-22)
(1.04959 -0.0110799 8.67319e-23)
(1.0421 -0.0114294 0)
(1.03411 -0.0117889 -3.7657e-23)
(1.02557 -0.0121643 -3.9771e-23)
(1.01646 -0.0125518 -2.58185e-23)
(1.00678 -0.0129629 -9.84073e-24)
(0.996543 -0.0133812 1.62806e-23)
(0.985825 -0.0138287 -9.36225e-25)
(0.974767 -0.0142598 7.79703e-24)
(0.963587 -0.0147257 -4.92425e-24)
(0.952593 -0.0151071 -1.88506e-23)
(0.942146 -0.0155593 2.2459e-24)
(1.1037 -0.00701866 0)
(1.10006 -0.00725085 3.13265e-22)
(1.09617 -0.00749403 0)
(1.09201 -0.00774705 3.21277e-22)
(1.08755 -0.00801089 -2.91557e-22)
(1.08273 -0.00828866 2.87747e-22)
(1.07752 -0.00857933 1.25494e-22)
(1.07195 -0.00887828 -1.17892e-23)
(1.06601 -0.009184 -2.63095e-22)
(1.05966 -0.00949756 9.73372e-23)