/*--------------------------------*- C++ -*----------------------------------*\
  =========                 |
  \\      /  F ield         | OpenFOAM: The Open Source CFD Toolbox
   \\    /   O peration     | Website:  https://openfoam.org
    \\  /    A nd           | Version:  9
     \\/     M anipulation  |
\*---------------------------------------------------------------------------*/
FoamFile
{
    format      ascii;
    class       volScalarField;
    location    "2250";
    object      gammaInt;
}
// * * * * * * * * * * * * * * * * * * * * * * * * * * * * * * * * * * * * * //

dimensions      [0 0 0 0 0 0 0];

internalField   nonuniform List<scalar> 
13354
(
0.470287
0.444903
0.437184
0.456719
0.474597
0.458846
0.44569
0.403819
0.378797
0.39638
0.380783
0.328601
0.210433
0.467779
0.473052
0.488882
0.505084
0.497997
0.451014
0.410891
0.369611
0.352322
0.350633
0.368285
0.380249
0.311016
0.48977
0.525446
0.548405
0.560376
0.547703
0.492367
0.408479
0.360126
0.356486
0.352675
0.355894
0.3697
0.364193
0.512526
0.56248
0.580658
0.590236
0.577439
0.525132
0.404405
0.344517
0.350552
0.359291
0.352594
0.351352
0.375891
0.517382
0.578565
0.599251
0.608906
0.592527
0.541955
0.3989
0.33099
0.342215
0.361044
0.351357
0.33532
0.365079
0.509427
0.58214
0.604072
0.612697
0.589781
0.532371
0.388823
0.319928
0.3403
0.364193
0.347503
0.31782
0.352992
0.495481
0.574981
0.59772
0.602309
0.582274
0.486675
0.375085
0.330076
0.35156
0.374206
0.340636
0.298133
0.324713
0.478099
0.560692
0.584069
0.591939
0.586771
0.447892
0.364205
0.349877
0.368914
0.374078
0.320343
0.262477
0.246926
0.459884
0.542908
0.565812
0.58698
0.57596
0.414705
0.363249
0.358108
0.37168
0.347989
0.27713
0.212172
0.183625
0.442491
0.522935
0.548661
0.576021
0.483179
0.385234
0.365004
0.35699
0.349649
0.319646
0.254602
0.202089
0.194843
0.426135
0.501179
0.536385
0.613128
0.439146
0.378072
0.371742
0.363896
0.350717
0.321752
0.2754
0.248313
0.264792
0.410079
0.480956
0.547993
0.526141
0.392914
0.386183
0.383203
0.377214
0.366998
0.348868
0.325943
0.320165
0.345318
0.395075
0.466563
0.60802
0.448596
0.409628
0.400766
0.398969
0.397014
0.393534
0.387154
0.380883
0.38594
0.410361
0.382014
0.462205
0.798854
0.458955
0.437142
0.423569
0.41779
0.418073
0.420316
0.421919
0.424279
0.433904
0.456845
0.372185
0.464483
0.683226
0.47173
0.462255
0.444445
0.437508
0.435783
0.440561
0.446558
0.453599
0.466631
0.490413
0.368899
0.462291
0.60848
0.473804
0.478944
0.458025
0.45017
0.448356
0.453283
0.46212
0.473063
0.490156
0.51605
0.36689
0.452775
0.57418
0.466878
0.484744
0.465425
0.455165
0.45458
0.460633
0.472217
0.487175
0.508447
0.536015
0.365141
0.436559
0.525995
0.456602
0.480419
0.468727
0.455794
0.455977
0.464686
0.47958
0.498378
0.522923
0.550741
0.363585
0.414917
0.475321
0.445968
0.468644
0.468733
0.455261
0.454959
0.466513
0.485216
0.507359
0.53366
0.560108
0.362789
0.392216
0.447281
0.443574
0.453749
0.464008
0.45484
0.453597
0.466652
0.488938
0.513865
0.540455
0.564179
0.363637
0.374684
0.429998
0.443956
0.442421
0.454346
0.453672
0.452826
0.465487
0.490202
0.517299
0.543255
0.563506
0.367005
0.367745
0.412342
0.459712
0.435916
0.443005
0.449426
0.45227
0.464089
0.488843
0.517105
0.542171
0.558982
0.373235
0.3641
0.390008
0.437782
0.438574
0.433335
0.44164
0.450204
0.46243
0.485378
0.513192
0.53734
0.551496
0.382608
0.363068
0.373164
0.415805
0.439734
0.430275
0.433039
0.444748
0.4595
0.480611
0.506299
0.529086
0.541658
0.395983
0.365284
0.366038
0.393434
0.433763
0.432511
0.426515
0.436164
0.453815
0.474772
0.497695
0.518213
0.529848
0.412439
0.371274
0.362626
0.374374
0.410604
0.431823
0.425311
0.427582
0.444746
0.466925
0.488364
0.505975
0.516567
0.430001
0.38125
0.362351
0.366219
0.388899
0.432072
0.428013
0.422303
0.43345
0.455965
0.478197
0.493659
0.502686
0.444969
0.395171
0.365842
0.362132
0.372838
0.40524
0.425445
0.421184
0.423678
0.44263
0.466178
0.481741
0.489234
0.452646
0.412919
0.373859
0.360863
0.365139
0.381946
0.421038
0.422121
0.419116
0.429428
0.451325
0.469234
0.47671
0.452992
0.432431
0.38671
0.362941
0.36112
0.369656
0.39458
0.416907
0.417401
0.419581
0.435497
0.454738
0.464647
0.451147
0.451471
0.404106
0.369463
0.359769
0.363347
0.376188
0.403826
0.41776
0.414978
0.422568
0.438963
0.451761
0.450752
0.467097
0.425387
0.381431
0.36143
0.359867
0.36657
0.383835
0.412006
0.413549
0.414764
0.424142
0.436903
0.45415
0.476301
0.450161
0.399715
0.367324
0.358742
0.361468
0.370697
0.39306
0.408379
0.410912
0.41347
0.422225
0.462428
0.480533
0.477184
0.423909
0.378604
0.360423
0.358741
0.36352
0.376522
0.402143
0.408312
0.408165
0.410959
0.475223
0.485326
0.502954
0.452962
0.396368
0.366136
0.358104
0.359579
0.366435
0.383848
0.401859
0.404913
0.404279
0.528849
0.491926
0.492974
0.525147
0.485117
0.420816
0.376893
0.360149
0.357682
0.360925
0.370452
0.389308
0.398771
0.400684
0.837256
0.81448
0.797746
0.792507
0.790555
0.768031
0.708674
0.627583
0.554988
0.511565
0.503964
0.537616
0.52017
0.452221
0.393748
0.36592
0.357857
0.358036
0.362607
0.374844
0.393167
0.397669
0.844087
0.821953
0.804544
0.797682
0.796055
0.779225
0.729003
0.653959
0.581505
0.533221
0.517989
0.545995
0.555797
0.488905
0.416902
0.376259
0.360718
0.357097
0.358457
0.364978
0.378244
0.393372
0.851185
0.829983
0.812299
0.804082
0.802321
0.789867
0.747909
0.679384
0.608113
0.556328
0.534609
0.554594
0.588387
0.529021
0.446255
0.391908
0.366941
0.358226
0.356549
0.359388
0.366538
0.38307
0.858208
0.838216
0.820707
0.811495
0.809317
0.80007
0.765373
0.703735
0.634749
0.580539
0.55341
0.565301
0.615901
0.568087
0.479812
0.412972
0.377638
0.362289
0.356686
0.356455
0.359501
0.37041
0.864621
0.846228
0.829322
0.819486
0.81677
0.80979
0.781327
0.726694
0.66104
0.605652
0.574191
0.578804
0.632679
0.603165
0.515912
0.4383
0.392296
0.369565
0.359288
0.355745
0.355758
0.36148
0.86963
0.853157
0.837386
0.827429
0.824157
0.818526
0.795116
0.747455
0.686432
0.631251
0.596541
0.594992
0.645425
0.633057
0.549988
0.467233
0.411588
0.380749
0.364648
0.357204
0.354376
0.3563
0.883616
0.872196
0.85812
0.843884
0.83424
0.830492
0.825512
0.806023
0.764911
0.70946
0.656358
0.619939
0.613518
0.657182
0.656655
0.579304
0.496343
0.433405
0.395563
0.373451
0.361244
0.355011
0.3538
0.879915
0.870855
0.859391
0.847324
0.838637
0.834489
0.829233
0.81215
0.776981
0.728669
0.679244
0.642689
0.632797
0.668547
0.672781
0.602074
0.521768
0.458099
0.41329
0.385005
0.368173
0.358154
0.353589
0.870554
0.864267
0.855753
0.846014
0.838572
0.834111
0.828038
0.812129
0.781749
0.740628
0.697047
0.663036
0.651184
0.677892
0.680377
0.617021
0.541591
0.480541
0.43331
0.399947
0.37797
0.363636
0.355711
0.855739
0.850984
0.844833
0.838005
0.832395
0.82758
0.819557
0.802917
0.776075
0.743081
0.706586
0.676666
0.664276
0.682282
0.678968
0.623461
0.554893
0.498166
0.453575
0.416293
0.3907
0.371989
0.360143
0.836499
0.832365
0.827479
0.822374
0.817837
0.812607
0.803003
0.785455
0.760416
0.732325
0.703781
0.680694
0.669394
0.677234
0.668765
0.621441
0.561343
0.510172
0.470123
0.435038
0.405432
0.382684
0.367122
0.813706
0.809584
0.805192
0.800906
0.796773
0.791016
0.780155
0.761794
0.737685
0.712519
0.688842
0.670127
0.659842
0.661459
0.65095
0.611863
0.561169
0.516544
0.481623
0.451618
0.422451
0.395745
0.376724
0.788093
0.783631
0.779232
0.775121
0.770882
0.764499
0.752673
0.733758
0.71029
0.686999
0.666295
0.650231
0.64055
0.638438
0.627652
0.596344
0.555189
0.51771
0.48809
0.463598
0.439006
0.410644
0.388398
0.760289
0.755317
0.750616
0.746276
0.741623
0.734586
0.722076
0.702947
0.68019
0.658365
0.639608
0.625153
0.615783
0.611462
0.60128
0.57688
0.5447
0.514477
0.490153
0.470728
0.451537
0.427233
0.401238
0.730905
0.725317
0.720168
0.715393
0.710216
0.70262
0.689703
0.670749
0.648974
0.628589
0.611316
0.597934
0.588762
0.583218
0.574036
0.555468
0.531209
0.507868
0.488715
0.473828
0.459443
0.440768
0.417348
0.700622
0.694205
0.688557
0.683312
0.677673
0.669719
0.656718
0.638333
0.617897
0.599117
0.583191
0.570671
0.561721
0.555615
0.547587
0.533769
0.516135
0.498904
0.484601
0.473845
0.463499
0.449904
0.43175
0.669992
0.662667
0.656382
0.650738
0.64483
0.636793
0.624064
0.606633
0.587896
0.570938
0.556385
0.54472
0.536115
0.529887
0.523017
0.512996
0.500692
0.488576
0.47851
0.4714
0.46451
0.455005
0.441985
0.639482
0.631292
0.624238
0.618299
0.612373
0.604556
0.592457
0.576353
0.559617
0.544649
0.531526
0.520804
0.512731
0.506774
0.501076
0.494046
0.485933
0.477963
0.471401
0.467333
0.463322
0.457082
0.44824
0.609478
0.600542
0.592816
0.586588
0.580875
0.57356
0.56241
0.547961
0.533487
0.520607
0.508915
0.499173
0.491783
0.486457
0.482117
0.477604
0.472694
0.467987
0.464444
0.462897
0.461045
0.457329
0.45152
0.580286
0.570809
0.562656
0.556263
0.550848
0.544233
0.534256
0.521717
0.509735
0.499014
0.488774
0.480013
0.473337
0.468806
0.465903
0.463648
0.461356
0.459088
0.457985
0.458637
0.458233
0.455836
0.451932
0.552143
0.542433
0.534188
0.527841
0.522723
0.516913
0.508238
0.497753
0.488383
0.479825
0.471109
0.46352
0.457734
0.454064
0.452379
0.451903
0.451743
0.451491
0.45189
0.45365
0.454235
0.452223
0.448731
0.525239
0.515734
0.507779
0.501691
0.496884
0.491915
0.484659
0.476321
0.469521
0.462942
0.455733
0.449461
0.444993
0.442637
0.442194
0.443001
0.444154
0.445201
0.446471
0.44801
0.448121
0.445692
0.44156
0.509781
0.499709
0.490912
0.483692
0.478087
0.473662
0.469589
0.463818
0.457755
0.453487
0.44868
0.442818
0.437767
0.434562
0.433821
0.435176
0.43704
0.438491
0.439603
0.440772
0.441007
0.438948
0.434766
0.429448
0.485002
0.475706
0.4681
0.462056
0.457143
0.453291
0.450165
0.445913
0.442097
0.440284
0.437314
0.432964
0.429073
0.426882
0.426988
0.42924
0.431815
0.432836
0.432469
0.431863
0.429807
0.424869
0.418896
0.413651
0.473385
0.461766
0.453465
0.447437
0.442827
0.438847
0.435834
0.433774
0.43104
0.42934
0.429668
0.428309
0.425742
0.423438
0.422402
0.422982
0.424337
0.425232
0.424914
0.422312
0.418028
0.413422
0.40756
0.40142
0.398056
0.451118
0.440471
0.433274
0.428999
0.426004
0.423034
0.421422
0.420561
0.419461
0.419781
0.421767
0.421633
0.420054
0.418898
0.419068
0.420193
0.419994
0.417403
0.413322
0.408378
0.402093
0.395622
0.390744
0.388509
0.387573
0.430962
0.421605
0.415523
0.412912
0.411602
0.410196
0.410139
0.410657
0.411109
0.413289
0.416671
0.417535
0.416471
0.414692
0.413812
0.4138
0.411685
0.405886
0.398851
0.3919
0.385565
0.382748
0.380648
0.379692
0.378823
0.41326
0.405516
0.400642
0.399384
0.399595
0.400105
0.401637
0.403434
0.40522
0.408532
0.412689
0.41456
0.413881
0.411395
0.407635
0.402621
0.397716
0.391208
0.38352
0.379545
0.37628
0.374427
0.373297
0.371729
0.369769
0.39814
0.392314
0.388869
0.388687
0.39007
0.392253
0.395201
0.398066
0.400822
0.404755
0.408321
0.409546
0.408387
0.404841
0.398614
0.390529
0.382645
0.378401
0.374885
0.372111
0.369551
0.367253
0.365325
0.363186
0.358858
0.385579
0.381917
0.380138
0.380761
0.383174
0.38641
0.390647
0.394276
0.397723
0.401482
0.403687
0.402571
0.397905
0.392377
0.385387
0.378396
0.374106
0.371009
0.368552
0.366133
0.362835
0.359515
0.356232
0.351982
0.347132
0.375467
0.374158
0.374151
0.375157
0.378503
0.38269
0.387713
0.391789
0.394695
0.397398
0.397106
0.393133
0.386235
0.378206
0.374798
0.371424
0.368291
0.365234
0.362003
0.358865
0.355127
0.350201
0.345611
0.341029
0.336507
0.367639
0.36881
0.370417
0.371372
0.375375
0.380394
0.385326
0.388641
0.390085
0.389503
0.387314
0.381755
0.375672
0.371431
0.368408
0.365736
0.362834
0.358887
0.354603
0.350002
0.345082
0.340104
0.335677
0.331555
0.327724
0.361977
0.365606
0.36837
0.369341
0.373015
0.378213
0.382044
0.383272
0.38253
0.37972
0.375579
0.372993
0.369872
0.366475
0.363024
0.35923
0.355598
0.351284
0.345463
0.34
0.335154
0.330924
0.327241
0.323845
0.320795
0.358377
0.364141
0.367417
0.368458
0.370885
0.374923
0.377053
0.376623
0.373883
0.371919
0.369582
0.367353
0.364773
0.361396
0.35666
0.351649
0.346549
0.341154
0.33547
0.330465
0.326546
0.323385
0.320536
0.317843
0.315473
0.356686
0.363894
0.367055
0.368006
0.36881
0.371065
0.371825
0.370895
0.369288
0.367503
0.364943
0.36206
0.358786
0.354398
0.348864
0.34218
0.336241
0.331098
0.326428
0.322576
0.319833
0.317601
0.315432
0.313349
0.31159
0.356575
0.364209
0.366859
0.367678
0.368094
0.368845
0.368776
0.367795
0.365896
0.363362
0.360038
0.35561
0.351007
0.346066
0.338581
0.332039
0.326814
0.322698
0.319206
0.316564
0.31491
0.313424
0.3118
0.310196
0.308936
0.357548
0.364592
0.366614
0.36719
0.367457
0.3674
0.366698
0.364657
0.361749
0.358123
0.353386
0.3478
0.341062
0.334317
0.327967
0.323014
0.319297
0.316466
0.314133
0.312587
0.311785
0.310832
0.309655
0.308485
0.307724
0.358742
0.364559
0.366064
0.366548
0.366437
0.365805
0.363546
0.360188
0.356041
0.350887
0.345221
0.337623
0.329949
0.323822
0.31955
0.31653
0.314219
0.312387
0.311
0.310473
0.310383
0.309851
0.309029
0.308231
0.307983
0.359431
0.364024
0.365132
0.365405
0.364902
0.362645
0.35865
0.353269
0.347944
0.342563
0.334526
0.32704
0.320535
0.316241
0.313992
0.312556
0.311453
0.310672
0.310293
0.31065
0.311048
0.310868
0.310411
0.310029
0.310236
0.358778
0.362456
0.363331
0.363356
0.361569
0.357523
0.351103
0.344251
0.337525
0.330744
0.324131
0.318428
0.314208
0.312295
0.311789
0.311442
0.311167
0.311253
0.311904
0.313029
0.313783
0.313874
0.313699
0.313636
0.314148
0.356727
0.359893
0.36037
0.359582
0.356137
0.349383
0.341417
0.33293
0.325856
0.320737
0.316829
0.313599
0.311619
0.311548
0.312248
0.312967
0.313943
0.315237
0.316637
0.318115
0.318937
0.319128
0.319072
0.319134
0.319723
0.352161
0.355093
0.355269
0.35373
0.347297
0.33889
0.329028
0.321221
0.316847
0.314826
0.313362
0.312422
0.31286
0.314739
0.316351
0.317795
0.319518
0.321412
0.323079
0.324672
0.32552
0.325833
0.325907
0.326041
0.326604
0.345533
0.348283
0.347568
0.344307
0.335735
0.325127
0.316608
0.312393
0.312011
0.313146
0.314275
0.315439
0.317491
0.320358
0.32268
0.325234
0.3281
0.330364
0.332063
0.333518
0.334211
0.334442
0.334431
0.334409
0.334697
0.334506
0.337407
0.336724
0.332163
0.320996
0.311895
0.307289
0.307576
0.311182
0.315243
0.318203
0.321179
0.325269
0.329169
0.331952
0.334784
0.337631
0.339711
0.341327
0.342703
0.343376
0.343604
0.343525
0.343322
0.343248
0.321792
0.324591
0.324754
0.318166
0.308358
0.302689
0.301677
0.305973
0.313111
0.319703
0.325063
0.329507
0.334207
0.338275
0.341683
0.345405
0.348535
0.35041
0.351684
0.352575
0.352863
0.352757
0.352353
0.351795
0.351265
0.305517
0.309788
0.314768
0.306578
0.30034
0.297878
0.298812
0.306218
0.316674
0.325742
0.332433
0.338186
0.344327
0.348596
0.351661
0.354418
0.356547
0.357851
0.358716
0.359238
0.359288
0.359013
0.35847
0.357754
0.357
0.297318
0.300487
0.309851
0.300317
0.297194
0.296323
0.297772
0.307273
0.320718
0.331753
0.340294
0.346359
0.351428
0.35488
0.357324
0.359309
0.360802
0.361794
0.362486
0.36289
0.362906
0.362647
0.36214
0.361449
0.36067
0.29583
0.297741
0.305073
0.297709
0.296228
0.295966
0.297795
0.308243
0.324065
0.33643
0.344574
0.350088
0.354277
0.357226
0.35939
0.361098
0.362402
0.363362
0.364089
0.364555
0.364676
0.364544
0.364173
0.363608
0.362928
0.295542
0.296695
0.301972
0.297197
0.296158
0.29608
0.298009
0.308412
0.325113
0.337092
0.344715
0.350006
0.353928
0.356838
0.359079
0.360867
0.362292
0.363422
0.364337
0.364986
0.365302
0.365368
0.36519
0.364806
0.364294
0.295478
0.296223
0.300581
0.297464
0.296438
0.296417
0.29813
0.307085
0.322752
0.334147
0.341722
0.347176
0.351325
0.35453
0.357101
0.35922
0.360958
0.362405
0.363629
0.364559
0.365146
0.365473
0.365539
0.365379
0.365076
0.295467
0.296142
0.302171
0.297854
0.296808
0.296729
0.298006
0.304676
0.317933
0.328687
0.336413
0.342335
0.34694
0.350653
0.353744
0.35634
0.358551
0.360448
0.362084
0.363389
0.364333
0.364992
0.365363
0.365475
0.365422
0.295457
0.295898
0.299629
0.298027
0.297057
0.297109
0.298032
0.301832
0.312082
0.321794
0.329614
0.335893
0.341045
0.345356
0.349062
0.352268
0.355067
0.357519
0.359677
0.361453
0.362844
0.363926
0.364677
0.365122
0.36537
0.295448
0.295686
0.297714
0.298173
0.297835
0.297485
0.298182
0.300398
0.306762
0.314617
0.321939
0.328405
0.333936
0.338791
0.343152
0.346976
0.350393
0.35351
0.356285
0.358631
0.360583
0.362185
0.363411
0.364278
0.36489
0.295445
0.295565
0.296771
0.299705
0.29824
0.297948
0.298363
0.299525
0.302991
0.308484
0.314706
0.320536
0.326079
0.331246
0.33608
0.34048
0.344545
0.348324
0.351769
0.354791
0.357403
0.359638
0.361453
0.362835
0.3639
0.295443
0.295497
0.296128
0.298127
0.299181
0.298086
0.298356
0.299236
0.301198
0.30415
0.308618
0.313324
0.318377
0.323419
0.328366
0.33311
0.337641
0.341987
0.346076
0.349783
0.353141
0.356125
0.358629
0.360637
0.362259
0.295448
0.295464
0.295754
0.29688
0.298038
0.299177
0.298309
0.298858
0.300081
0.302056
0.30482
0.307743
0.311697
0.316088
0.320567
0.325231
0.329967
0.334663
0.339234
0.343568
0.347659
0.351416
0.354719
0.357488
0.359796
0.295451
0.295449
0.295569
0.296119
0.296883
0.297687
0.297884
0.299705
0.299404
0.300635
0.302395
0.304022
0.306751
0.310225
0.314058
0.318038
0.322373
0.326951
0.331637
0.336271
0.340878
0.345369
0.349536
0.353183
0.356305
0.295491
0.295467
0.295516
0.295758
0.296166
0.29663
0.296941
0.297966
0.298266
0.299558
0.301494
0.301824
0.303483
0.305815
0.308601
0.311587
0.315189
0.319353
0.323762
0.328304
0.333129
0.338141
0.34303
0.347555
0.351595
0.29543
0.295426
0.29546
0.295575
0.295756
0.295967
0.296175
0.296706
0.297031
0.297836
0.298843
0.299292
0.300402
0.301887
0.303604
0.305731
0.308682
0.312406
0.31642
0.320576
0.325221
0.330137
0.33531
0.340524
0.345493
0.295863
0.295605
0.295614
0.295678
0.295756
0.295835
0.295938
0.296217
0.296481
0.29697
0.297485
0.297768
0.29834
0.299121
0.300083
0.30167
0.304225
0.307601
0.311254
0.31483
0.318681
0.322845
0.327579
0.332814
0.338248
0.294881
0.294698
0.294993
0.295205
0.295319
0.295426
0.295533
0.295692
0.295828
0.296013
0.296178
0.29625
0.296454
0.296784
0.297288
0.298404
0.300881
0.304199
0.307574
0.310524
0.313478
0.31671
0.320479
0.325084
0.330402
0.305153
0.297111
0.295733
0.295071
0.294884
0.294672
0.294515
0.294524
0.294718
0.295049
0.29527
0.295292
0.295379
0.295721
0.29656
0.298245
0.300916
0.304483
0.308078
0.310646
0.312676
0.314562
0.316618
0.319362
0.32339
0.303513
0.30183
0.300898
0.300501
0.300328
0.300234
0.300241
0.300314
0.300386
0.300409
0.300414
0.300528
0.300878
0.301532
0.302441
0.303617
0.305039
0.306581
0.308001
0.309206
0.310371
0.311579
0.312942
0.314745
0.317429
0.967217
0.984311
0.995222
0.995805
0.995864
0.996192
0.996413
0.996496
0.996478
0.996392
0.996244
0.996041
0.995786
0.99548
0.995127
0.994728
0.994285
0.993794
0.993254
0.992657
0.991993
0.99125
0.990412
0.989456
0.988353
0.987064
0.985538
0.983711
0.981501
0.978814
0.975536
0.971541
0.966696
0.960865
0.953921
0.945742
0.936212
0.925225
0.912698
0.898571
0.882822
0.865466
0.846564
0.826221
0.80459
0.781864
0.75828
0.734099
0.709601
0.685074
0.660797
0.637034
0.614027
0.591993
0.571098
0.551496
0.533285
0.516546
0.501327
0.487654
0.475549
0.465021
0.45608
0.448734
0.442995
0.438876
0.436399
0.435584
0.436427
0.438879
0.442809
0.44793
0.453654
0.458912
0.461887
0.46219
0.45879
0.450254
0.435386
0.416818
0.40027
0.387558
0.378405
0.37216
0.368172
0.365055
0.361355
0.357628
0.354212
0.350629
0.346567
0.34251
0.338595
0.334794
0.330977
0.327621
0.324914
0.322704
0.320527
0.965884
0.980065
0.99356
0.9957
0.99572
0.995995
0.996303
0.996494
0.996574
0.996587
0.996553
0.996478
0.996366
0.99622
0.996046
0.995847
0.995628
0.995393
0.995147
0.994894
0.994636
0.994373
0.994109
0.99385
0.993603
0.993382
0.993194
0.993048
0.992946
0.992883
0.992841
0.992782
0.992637
0.992313
0.991698
0.990685
0.989162
0.986986
0.983986
0.979961
0.9747
0.967984
0.959597
0.949344
0.937063
0.922651
0.90607
0.88736
0.86664
0.844131
0.820107
0.794876
0.768807
0.742307
0.715748
0.689514
0.663926
0.639284
0.615817
0.593686
0.57303
0.553957
0.536535
0.520818
0.506849
0.494643
0.484224
0.475707
0.469252
0.465032
0.463322
0.464757
0.470424
0.481787
0.50057
0.528952
0.568824
0.615177
0.63854
0.611276
0.564223
0.519475
0.48228
0.453046
0.439469
0.445379
0.450578
0.449561
0.447293
0.441925
0.429604
0.414267
0.398575
0.383613
0.368119
0.35493
0.344469
0.336002
0.32884
0.964754
0.979175
0.992804
0.995547
0.995686
0.995899
0.996201
0.996415
0.996515
0.996543
0.996521
0.996459
0.996361
0.996228
0.996064
0.99587
0.99565
0.995406
0.99514
0.994854
0.994549
0.99422
0.993863
0.993469
0.993037
0.992569
0.992063
0.991515
0.990921
0.990268
0.98954
0.988707
0.987719
0.986494
0.984911
0.98285
0.980206
0.976879
0.972736
0.967616
0.961345
0.953741
0.944625
0.933814
0.921164
0.906577
0.890015
0.871497
0.851127
0.829096
0.805664
0.781121
0.755795
0.730067
0.704314
0.678886
0.65412
0.630315
0.607688
0.586403
0.566593
0.548374
0.531814
0.516977
0.503907
0.492602
0.483086
0.47546
0.469856
0.466389
0.465185
0.466595
0.471362
0.480649
0.495978
0.519665
0.555719
0.607885
0.648409
0.628358
0.577871
0.524497
0.477129
0.437879
0.411795
0.403063
0.402393
0.400711
0.400497
0.398468
0.393852
0.387634
0.380404
0.372952
0.364298
0.356411
0.34943
0.342873
0.336364
0.96419
0.978407
0.99217
0.995424
0.995677
0.995853
0.99615
0.996385
0.996511
0.99656
0.996558
0.996518
0.996444
0.996338
0.996203
0.996039
0.995851
0.995639
0.995406
0.995154
0.994886
0.994601
0.994295
0.993961
0.993594
0.993198
0.992775
0.992323
0.99184
0.991318
0.990742
0.990085
0.989309
0.988351
0.987101
0.985424
0.983199
0.980321
0.976666
0.972068
0.966345
0.959311
0.950781
0.940565
0.928503
0.914491
0.898477
0.880476
0.86058
0.838976
0.815923
0.791696
0.76663
0.741103
0.715484
0.690129
0.665375
0.641521
0.618787
0.597347
0.57735
0.558916
0.542119
0.527011
0.513626
0.501994
0.492165
0.484241
0.478361
0.474669
0.473328
0.474702
0.479531
0.488985
0.504608
0.528573
0.56427
0.615221
0.659157
0.637504
0.584007
0.528772
0.48122
0.441867
0.413832
0.403188
0.404628
0.405972
0.406192
0.4034
0.398077
0.39136
0.38386
0.376385
0.367781
0.360602
0.35468
0.349204
0.343584
0.964076
0.97822
0.991782
0.995322
0.995681
0.995837
0.996121
0.996363
0.996501
0.99656
0.996567
0.996536
0.996471
0.996376
0.996251
0.996099
0.99592
0.995716
0.99549
0.995242
0.994974
0.994687
0.994378
0.994039
0.993663
0.993254
0.992812
0.992335
0.991819
0.991253
0.990622
0.989897
0.989036
0.987982
0.986645
0.98489
0.982586
0.979629
0.975899
0.971238
0.965471
0.958416
0.949899
0.93974
0.927788
0.913944
0.898159
0.880448
0.860901
0.839696
0.817077
0.793311
0.768726
0.74368
0.718524
0.693604
0.669232
0.645681
0.623187
0.601948
0.582114
0.563805
0.547098
0.532051
0.518702
0.507085
0.497246
0.489271
0.483298
0.479481
0.477993
0.479144
0.48358
0.492406
0.507194
0.530175
0.564756
0.61522
0.662455
0.642396
0.587578
0.530389
0.482108
0.442721
0.411699
0.394116
0.391446
0.393908
0.396369
0.395972
0.39306
0.388325
0.382685
0.37678
0.369645
0.363841
0.359115
0.354745
0.350094
0.964243
0.978306
0.991565
0.995256
0.995697
0.995844
0.996117
0.996361
0.996506
0.996571
0.996583
0.996557
0.996499
0.99641
0.996293
0.996147
0.995975
0.995777
0.995556
0.995311
0.995045
0.994758
0.994448
0.994109
0.993733
0.993323
0.99288
0.992401
0.99188
0.991304
0.990654
0.989901
0.989001
0.987896
0.986509
0.984715
0.982379
0.979394
0.975641
0.970969
0.965206
0.958174
0.949706
0.939634
0.927813
0.914148
0.898594
0.881165
0.861947
0.841099
0.818845
0.79546
0.771269
0.746609
0.72182
0.697233
0.673155
0.649857
0.627569
0.606487
0.586764
0.568524
0.551846
0.536797
0.523418
0.511746
0.501826
0.493731
0.487593
0.483574
0.481857
0.482713
0.486704
0.494831
0.508608
0.530177
0.562671
0.610512
0.660822
0.645861
0.593316
0.535758
0.486455
0.44677
0.415007
0.393051
0.384947
0.385826
0.388851
0.389614
0.388241
0.385094
0.380764
0.375997
0.37015
0.365653
0.362109
0.358824
0.355207
0.964655
0.978596
0.99148
0.995223
0.995718
0.995865
0.996129
0.996372
0.996519
0.996586
0.9966
0.996576
0.996521
0.996435
0.996321
0.996178
0.996009
0.995813
0.995593
0.995349
0.995081
0.994791
0.994475
0.994129
0.993747
0.993332
0.992881
0.992392
0.991855
0.991257
0.990577
0.989783
0.988829
0.987655
0.986187
0.984316
0.981906
0.978849
0.975028
0.970295
0.964483
0.957419
0.948936
0.938878
0.927115
0.913554
0.898156
0.880936
0.861977
0.841438
0.819532
0.796524
0.772721
0.748445
0.724028
0.699785
0.676013
0.652976
0.630899
0.609979
0.590375
0.572208
0.555567
0.54052
0.527112
0.515381
0.505372
0.49715
0.490829
0.486573
0.484564
0.485042
0.488481
0.495763
0.508292
0.5281
0.558019
0.60234
0.654805
0.648618
0.601934
0.545558
0.495154
0.454191
0.421415
0.396187
0.38215
0.379261
0.381495
0.382967
0.382904
0.381323
0.378381
0.3747
0.370145
0.366772
0.364168
0.361743
0.359034
0.965257
0.979011
0.991489
0.995215
0.995744
0.995896
0.996153
0.996392
0.996539
0.996606
0.996621
0.996598
0.996543
0.996458
0.996344
0.996203
0.996034
0.995839
0.995619
0.995373
0.995102
0.994808
0.994485
0.994131
0.993743
0.99332
0.99286
0.992357
0.991802
0.991181
0.990471
0.989637
0.988628
0.987385
0.985833
0.983871
0.981371
0.978226
0.974317
0.969501
0.963615
0.956493
0.947979
0.937922
0.926198
0.912722
0.897459
0.880426
0.861705
0.841447
0.819858
0.797191
0.773742
0.749819
0.725738
0.701807
0.678314
0.65551
0.63362
0.612843
0.593335
0.575224
0.558601
0.543536
0.53008
0.518271
0.508152
0.499779
0.493255
0.488729
0.486383
0.486434
0.489272
0.495649
0.506827
0.524679
0.551712
0.59183
0.644266
0.649508
0.611985
0.558993
0.508032
0.465158
0.430738
0.403344
0.38441
0.376287
0.375782
0.376846
0.377571
0.377242
0.375623
0.372939
0.369587
0.367184
0.365374
0.363698
0.361782
0.966005
0.97951
0.991564
0.995228
0.995773
0.995931
0.996184
0.99642
0.996565
0.99663
0.996644
0.99662
0.996564
0.996479
0.996365
0.996224
0.996055
0.995859
0.995637
0.995388
0.995115
0.994815
0.994486
0.994124
0.993726
0.993293
0.99282
0.992302
0.991726
0.991078
0.990331
0.989449
0.98838
0.987064
0.985423
0.983361
0.980763
0.977521
0.973515
0.968605
0.962634
0.955444
0.946884
0.936811
0.92511
0.911702
0.896554
0.879685
0.861176
0.841172
0.819872
0.797517
0.774389
0.75079
0.72702
0.703373
0.680128
0.657536
0.635815
0.615159
0.59573
0.577657
0.561036
0.54594
0.532419
0.520518
0.510272
0.501734
0.494991
0.490178
0.487467
0.487061
0.489273
0.494732
0.504538
0.520374
0.544425
0.580056
0.628843
0.647764
0.621858
0.574488
0.524185
0.479461
0.442705
0.413347
0.39094
0.37753
0.372725
0.371955
0.372573
0.373134
0.372631
0.370922
0.368669
0.367105
0.365969
0.364902
0.363626
0.966836
0.980087
0.991691
0.995254
0.995803
0.995969
0.99622
0.996451
0.996593
0.996657
0.996668
0.996643
0.996586
0.9965
0.996385
0.996242
0.996072
0.995874
0.99565
0.995398
0.99512
0.994814
0.994478
0.994108
0.993701
0.993257
0.992771
0.992234
0.991635
0.990956
0.990171
0.989237
0.988106
0.986712
0.984982
0.98282
0.980121
0.976778
0.972672
0.967664
0.961605
0.954341
0.94573
0.935636
0.923949
0.910598
0.895552
0.878831
0.860514
0.840743
0.819707
0.797638
0.774808
0.751503
0.728013
0.704625
0.681607
0.659199
0.63762
0.617068
0.597698
0.579646
0.56301
0.547867
0.534269
0.52226
0.511873
0.503158
0.496187
0.491078
0.487992
0.487117
0.488705
0.493273
0.501748
0.515613
0.536754
0.567957
0.611932
0.643047
0.630073
0.590393
0.542323
0.496474
0.457164
0.42547
0.400543
0.382852
0.373223
0.369249
0.368569
0.369284
0.36961
0.3688
0.367501
0.366651
0.366073
0.365506
0.36476
0.967705
0.980681
0.991864
0.995284
0.995827
0.996004
0.996257
0.996484
0.996622
0.996683
0.996692
0.996665
0.996607
0.996519
0.996402
0.996258
0.996086
0.995886
0.995659
0.995404
0.995121
0.99481
0.994466
0.994087
0.993671
0.993215
0.992714
0.992158
0.991534
0.990823
0.989996
0.98901
0.987814
0.986343
0.984523
0.982264
0.979465
0.976023
0.971817
0.966712
0.960564
0.953227
0.944564
0.934447
0.922772
0.909472
0.894519
0.877937
0.8598
0.840245
0.819456
0.797651
0.775093
0.752061
0.728828
0.705674
0.682859
0.660618
0.639163
0.618692
0.599363
0.581316
0.56465
0.549446
0.535756
0.523628
0.51309
0.50419
0.496987
0.491582
0.488123
0.486782
0.487764
0.491491
0.498724
0.510736
0.529154
0.556212
0.595191
0.634963
0.63534
0.605198
0.561177
0.515368
0.473856
0.439378
0.41208
0.391309
0.377441
0.369576
0.366362
0.366161
0.366765
0.366639
0.36613
0.365889
0.365791
0.365649
0.365339
0.968607
0.981348
0.992064
0.995319
0.995848
0.996038
0.996293
0.996517
0.996651
0.996708
0.996715
0.996686
0.996626
0.996536
0.996418
0.996272
0.996098
0.995897
0.995666
0.995408
0.995121
0.994803
0.994452
0.994065
0.993639
0.993171
0.992654
0.992078
0.991428
0.990683
0.989813
0.988775
0.987514
0.985968
0.984062
0.981709
0.978815
0.975276
0.970974
0.965775
0.959543
0.952136
0.943425
0.933288
0.921625
0.908376
0.893516
0.877066
0.859101
0.839752
0.819194
0.797642
0.775343
0.752563
0.729568
0.706633
0.684
0.661906
0.640555
0.620151
0.60085
0.582794
0.566084
0.550808
0.537016
0.524758
0.51406
0.504971
0.497536
0.491842
0.48802
0.486227
0.486636
0.489583
0.495686
0.506015
0.521965
0.545296
0.579301
0.622882
0.636799
0.617684
0.579543
0.535163
0.492249
0.454893
0.424857
0.401662
0.384646
0.373083
0.366566
0.36438
0.364416
0.364577
0.364639
0.364891
0.3652
0.36542
0.365475
0.969529
0.982029
0.992277
0.995355
0.995867
0.996071
0.996329
0.996549
0.996678
0.996733
0.996737
0.996707
0.996645
0.996553
0.996434
0.996286
0.99611
0.995906
0.995673
0.995411
0.995119
0.994796
0.994438
0.994043
0.993608
0.993127
0.992594
0.991997
0.99132
0.990541
0.989629
0.988538
0.987214
0.985595
0.983608
0.981167
0.978183
0.974554
0.97016
0.964875
0.958564
0.951095
0.942342
0.93219
0.920547
0.907353
0.892586
0.87627
0.858475
0.839329
0.818998
0.797687
0.775635
0.753096
0.730328
0.707595
0.685132
0.663173
0.64192
0.621566
0.602278
0.584201
0.567437
0.552077
0.538175
0.525783
0.51492
0.505642
0.497977
0.492005
0.487839
0.485619
0.485492
0.487731
0.492828
0.501665
0.515436
0.535521
0.564873
0.606812
0.634112
0.626995
0.596368
0.55485
0.511555
0.471702
0.43856
0.412896
0.393585
0.37917
0.369396
0.364439
0.363005
0.362839
0.363119
0.363696
0.364332
0.364865
0.365235
0.970461
0.982714
0.992497
0.995392
0.995885
0.996102
0.996364
0.996581
0.996706
0.996757
0.996759
0.996727
0.996663
0.99657
0.996449
0.996299
0.996121
0.995915
0.99568
0.995415
0.995119