/*--------------------------------*- C++ -*----------------------------------*\
  =========                 |
  \\      /  F ield         | OpenFOAM: The Open Source CFD Toolbox
   \\    /   O peration     | Website:  https://openfoam.org
    \\  /    A nd           | Version:  9
     \\/     M anipulation  |
\*---------------------------------------------------------------------------*/
FoamFile
{
    format      ascii;
    class       volScalarField;
    location    "2250";
    object      k;
}
// * * * * * * * * * * * * * * * * * * * * * * * * * * * * * * * * * * * * * //

dimensions      [0 2 -2 0 0 0 0];

internalField   nonuniform List<scalar> 
13354
(
0.000242036
0.000247452
0.000249246
0.000250736
0.000270959
0.000335805
0.000477205
0.000669261
0.000768406
0.000665738
0.000492443
0.000372382
0.000232324
0.000255389
0.000250022
0.000249866
0.000247992
0.000260412
0.000317306
0.000489885
0.000821919
0.00105317
0.000862616
0.000488715
0.000282604
0.000187567
0.000274024
0.000251225
0.000247021
0.000246001
0.000253798
0.000305256
0.000499426
0.000955624
0.00136058
0.0011553
0.000596448
0.000262254
0.000172704
0.000285495
0.000254272
0.000246057
0.000247494
0.000251225
0.000294718
0.000501656
0.0010279
0.00152696
0.00137261
0.000760318
0.000335014
0.000203597
0.000283454
0.000258194
0.00024233
0.00024649
0.000248291
0.000281828
0.00048715
0.00103861
0.00158361
0.00150913
0.0009411
0.000465912
0.000264376
0.000260526
0.000258796
0.00023851
0.000244445
0.000245503
0.000268005
0.000453114
0.000989929
0.00158008
0.00162365
0.00112019
0.000601505
0.000326528
0.000234906
0.000257324
0.000236107
0.000239612
0.00024075
0.000253736
0.000406391
0.000890415
0.00150698
0.00167261
0.00126091
0.00071615
0.000373376
0.000215347
0.000255497
0.000233776
0.000231758
0.000233717
0.000239807
0.000355249
0.000766019
0.00135645
0.0016115
0.00132725
0.000794065
0.000403171
0.000200398
0.000246988
0.00022808
0.000223471
0.000225275
0.000226168
0.000301748
0.000624605
0.00113518
0.00146384
0.00131328
0.000828915
0.000415453
0.000189044
0.000227999
0.000217832
0.000214583
0.000216035
0.000211719
0.000248567
0.000476998
0.000918403
0.00126854
0.00121717
0.000811601
0.00041302
0.000178452
0.00020546
0.00020394
0.000204279
0.000204727
0.0001944
0.00020249
0.000361505
0.000718066
0.00104678
0.00106444
0.000748365
0.000395137
0.000167195
0.000187098
0.000187457
0.000190545
0.000189115
0.000176333
0.000172331
0.000274496
0.00054025
0.000820987
0.000885242
0.000659657
0.000367376
0.000155199
0.000170513
0.00017056
0.000174402
0.000171816
0.000162501
0.000152217
0.000211444
0.00039463
0.000614065
0.000702769
0.0005609
0.000333617
0.000143125
0.000154716
0.000155396
0.000157979
0.000156789
0.000150415
0.000138079
0.000167607
0.000284932
0.000443135
0.000534272
0.000459103
0.000294561
0.00013162
0.000140491
0.000141573
0.000143173
0.000142711
0.000138857
0.000127118
0.000137976
0.000207312
0.000313227
0.000393777
0.00036268
0.000252947
0.000120681
0.000127386
0.000128722
0.000129703
0.000129471
0.000127499
0.000117616
0.000118105
0.00015471
0.0002194
0.000282623
0.000278529
0.000212309
0.000110364
0.000115376
0.000116769
0.000117248
0.000117103
0.000116464
0.000108717
0.000104287
0.000120454
0.000155119
0.000198755
0.000209068
0.000174451
0.000100736
0.000104422
0.00010576
0.000105783
0.000105722
0.000105874
0.000100129
9.39652e-05
9.8728e-05
0.000113596
0.000140555
0.000154974
0.000140938
9.16714e-05
9.44186e-05
9.58487e-05
9.55342e-05
9.54988e-05
9.60717e-05
9.18615e-05
8.57182e-05
8.50214e-05
8.82944e-05
0.000102739
0.000115695
0.000113429
8.33093e-05
8.52921e-05
8.67371e-05
8.62011e-05
8.63038e-05
8.7105e-05
8.40231e-05
7.86701e-05
7.61173e-05
7.35304e-05
7.95445e-05
8.91557e-05
9.15468e-05
7.58261e-05
7.72429e-05
7.85287e-05
7.77576e-05
7.80157e-05
7.89505e-05
7.67159e-05
7.23857e-05
6.97163e-05
6.50879e-05
6.60649e-05
7.17196e-05
7.54573e-05
6.9255e-05
7.02376e-05
7.1279e-05
7.03814e-05
7.06924e-05
7.16693e-05
7.00774e-05
6.67057e-05
6.46511e-05
6.00308e-05
5.8605e-05
6.10869e-05
6.40676e-05
6.35063e-05
6.41723e-05
6.48939e-05
6.39242e-05
6.42813e-05
6.52748e-05
6.41617e-05
6.15779e-05
6.0278e-05
5.65152e-05
5.41487e-05
5.47442e-05
5.66074e-05
5.84496e-05
5.89187e-05
5.92392e-05
5.82532e-05
5.86732e-05
5.96596e-05
5.89119e-05
5.69416e-05
5.62767e-05
5.34524e-05
5.1018e-05
5.08437e-05
5.18153e-05
5.40272e-05
5.43661e-05
5.42357e-05
5.32994e-05
5.38283e-05
5.47605e-05
5.43143e-05
5.28123e-05
5.24979e-05
5.04426e-05
4.83635e-05
4.78985e-05
4.84322e-05
5.01644e-05
5.03829e-05
4.98588e-05
4.89778e-05
4.96437e-05
5.05273e-05
5.03659e-05
4.91257e-05
4.89359e-05
4.74968e-05
4.56412e-05
4.53048e-05
4.58401e-05
4.67748e-05
4.68996e-05
4.60691e-05
4.52093e-05
4.60499e-05
4.69449e-05
4.69439e-05
4.58941e-05
4.56998e-05
4.46218e-05
4.29697e-05
4.26731e-05
4.33469e-05
4.38054e-05
4.38414e-05
4.27596e-05
4.1917e-05
4.29537e-05
4.3842e-05
4.39713e-05
4.30639e-05
4.28252e-05
4.19211e-05
4.02662e-05
4.01272e-05
4.08115e-05
4.12094e-05
4.10986e-05
3.98438e-05
3.90835e-05
4.02111e-05
4.11297e-05
4.13666e-05
4.05879e-05
4.02421e-05
3.9433e-05
3.78873e-05
3.75975e-05
3.83697e-05
3.88845e-05
3.85952e-05
3.72644e-05
3.65881e-05
3.77447e-05
3.87041e-05
3.90595e-05
3.83593e-05
3.79434e-05
3.73226e-05
3.56719e-05
3.53276e-05
3.59252e-05
3.67836e-05
3.63044e-05
3.49253e-05
3.43697e-05
3.55068e-05
3.64816e-05
3.69489e-05
3.63226e-05
3.59271e-05
3.5364e-05
3.37606e-05
3.3169e-05
3.36724e-05
3.4865e-05
3.41669e-05
3.27958e-05
3.23722e-05
3.34813e-05
3.44303e-05
3.49793e-05
3.44379e-05
3.402e-05
3.36345e-05
3.20129e-05
3.12866e-05
3.16694e-05
3.30855e-05
3.2182e-05
3.08521e-05
3.05669e-05
3.16108e-05
3.24983e-05
3.30919e-05
3.26519e-05
3.22682e-05
3.19935e-05
3.04499e-05
2.9613e-05
2.98909e-05
3.14261e-05
3.03251e-05
2.90739e-05
2.89185e-05
2.98853e-05
3.06939e-05
3.13223e-05
3.09784e-05
3.06142e-05
3.047e-05
2.89831e-05
2.80903e-05
2.82774e-05
2.98583e-05
2.85945e-05
2.74485e-05
2.74169e-05
2.82768e-05
2.90321e-05
2.96498e-05
2.93724e-05
2.90613e-05
2.90137e-05
2.76053e-05
2.66768e-05
2.67946e-05
2.70498e-05
2.83709e-05
2.69853e-05
2.59545e-05
2.60276e-05
2.67782e-05
2.74897e-05
2.80938e-05
2.78534e-05
2.75833e-05
2.76406e-05
2.631e-05
2.53607e-05
2.54042e-05
2.20839e-05
2.2319e-05
2.28952e-05
2.36657e-05
2.44305e-05
2.4628e-05
2.36111e-05
2.37878e-05
2.59587e-05
2.69467e-05
2.54862e-05
2.45727e-05
2.4739e-05
2.53716e-05
2.60614e-05
2.66468e-05
2.64266e-05
2.61838e-05
2.63302e-05
2.50985e-05
2.41332e-05
2.41058e-05
2.10722e-05
2.12756e-05
2.18338e-05
2.2524e-05
2.32511e-05
2.32829e-05
2.22628e-05
2.26466e-05
2.49607e-05
2.55816e-05
2.40931e-05
2.32915e-05
2.3529e-05
2.406e-05
2.47351e-05
2.53109e-05
2.50937e-05
2.48578e-05
2.50917e-05
2.39679e-05
2.30028e-05
2.29042e-05
2.00995e-05
2.02665e-05
2.08203e-05
2.14191e-05
2.21192e-05
2.19984e-05
2.10041e-05
2.16247e-05
2.40332e-05
2.4271e-05
2.27944e-05
2.21009e-05
2.23873e-05
2.2829e-05
2.35049e-05
2.40667e-05
2.38504e-05
2.3626e-05
2.39228e-05
2.29006e-05
2.19595e-05
2.18173e-05
1.91639e-05
1.92943e-05
1.98451e-05
2.03457e-05
2.10257e-05
2.07683e-05
1.98343e-05
2.07136e-05
2.3141e-05
2.30153e-05
2.15798e-05
2.09892e-05
2.13015e-05
2.16799e-05
2.23579e-05
2.28924e-05
2.26869e-05
2.24835e-05
2.28297e-05
2.18913e-05
2.09877e-05
2.08328e-05
1.82636e-05
1.83651e-05
1.89009e-05
1.93018e-05
1.99705e-05
1.95993e-05
1.87624e-05
1.99105e-05
2.22707e-05
2.18214e-05
2.04422e-05
1.99531e-05
2.02645e-05
2.06001e-05
2.12903e-05
2.17885e-05
2.15978e-05
2.14202e-05
2.18114e-05
2.09425e-05
2.00719e-05
1.99305e-05
1.7397e-05
1.74769e-05
1.79854e-05
1.82957e-05
1.89485e-05
1.84848e-05
1.77798e-05
1.92003e-05
2.14141e-05
2.06911e-05
1.9375e-05
1.89862e-05
1.92742e-05
1.95859e-05
2.0296e-05
2.07578e-05
2.05748e-05
2.04328e-05
2.08652e-05
2.00501e-05
1.92058e-05
1.90885e-05
1.59414e-05
1.6563e-05
1.66267e-05
1.70943e-05
1.73297e-05
1.79652e-05
1.74298e-05
1.68937e-05
1.85713e-05
2.05638e-05
1.96293e-05
1.83747e-05
1.80825e-05
1.83267e-05
1.86325e-05
1.93554e-05
1.97866e-05
1.9615e-05
1.95141e-05
1.99913e-05
1.92159e-05
1.83847e-05
1.82891e-05
1.52043e-05
1.57612e-05
1.58185e-05
1.62257e-05
1.64094e-05
1.70196e-05
1.64354e-05
1.60974e-05
1.79993e-05
1.97148e-05
1.86312e-05
1.74389e-05
1.72372e-05
1.74274e-05
1.77399e-05
1.84673e-05
1.88713e-05
1.87101e-05
1.86568e-05
1.91819e-05
1.84388e-05
1.76143e-05
1.75297e-05
1.45017e-05
1.49913e-05
1.50497e-05
1.53817e-05
1.55387e-05
1.61141e-05
1.55075e-05
1.53929e-05
1.74649e-05
1.88722e-05
1.76942e-05
1.65677e-05
1.6443e-05
1.6577e-05
1.69081e-05
1.76357e-05
1.80096e-05
1.78602e-05
1.78575e-05
1.84315e-05
1.77123e-05
1.68871e-05
1.68083e-05
1.38314e-05
1.42512e-05
1.43162e-05
1.4564e-05
1.47188e-05
1.52497e-05
1.46479e-05
1.47729e-05
1.69482e-05
1.80457e-05
1.68109e-05
1.57605e-05
1.56934e-05
1.57731e-05
1.61309e-05
1.68527e-05
1.71964e-05
1.70627e-05
1.71144e-05
1.77364e-05
1.70348e-05
1.6205e-05
1.61239e-05
1.31899e-05
1.35434e-05
1.36147e-05
1.37752e-05
1.39504e-05
1.44258e-05
1.38614e-05
1.42307e-05
1.64346e-05
1.72481e-05
1.59764e-05
1.50181e-05
1.49816e-05
1.50179e-05
1.54088e-05
1.6115e-05
1.64282e-05
1.63124e-05
1.64185e-05
1.70885e-05
1.63999e-05
1.55654e-05
1.54802e-05
1.25743e-05
1.28688e-05
1.29444e-05
1.30219e-05
1.3232e-05
1.36425e-05
1.31503e-05
1.37552e-05
1.59152e-05
1.64861e-05
1.51852e-05
1.43317e-05
1.42978e-05
1.43077e-05
1.47379e-05
1.54248e-05
1.57084e-05
1.56083e-05
1.57678e-05
1.64799e-05
1.58013e-05
1.49624e-05
1.48772e-05
1.19819e-05
1.22268e-05
1.23024e-05
1.23056e-05
1.25589e-05
1.29013e-05
1.25142e-05
1.33297e-05
1.53895e-05
1.57633e-05
1.44349e-05
1.36925e-05
1.36399e-05
1.36437e-05
1.41151e-05
1.47769e-05
1.50299e-05
1.49448e-05
1.51586e-05
1.59123e-05
1.52342e-05
1.43923e-05
1.43089e-05
1.14139e-05
1.16221e-05
1.1683e-05
1.16306e-05
1.19269e-05
1.2205e-05
1.19518e-05
1.29375e-05
1.4863e-05
1.50752e-05
1.37239e-05
1.309e-05
1.30023e-05
1.3024e-05
1.35408e-05
1.41733e-05
1.43906e-05
1.43157e-05
1.45819e-05
1.5369e-05
1.46947e-05
1.38525e-05
1.37741e-05
1.08718e-05
1.10529e-05
1.10849e-05
1.09954e-05
1.1328e-05
1.15567e-05
1.1456e-05
1.25589e-05
1.43454e-05
1.44142e-05
1.30521e-05
1.25159e-05
1.23851e-05
1.24438e-05
1.30043e-05
1.36064e-05
1.37903e-05
1.37225e-05
1.4036e-05
1.48396e-05
1.41752e-05
1.33374e-05
1.32651e-05
1.03548e-05
1.05169e-05
1.05064e-05
1.0401e-05
1.07608e-05
1.09622e-05
1.10209e-05
1.21861e-05
1.38478e-05
1.37698e-05
1.24199e-05
1.19615e-05
1.17926e-05
1.19057e-05
1.25034e-05
1.30691e-05
1.32191e-05
1.31575e-05
1.35187e-05
1.43313e-05
1.36758e-05
1.28456e-05
1.27777e-05
9.8638e-06
1.00117e-05
9.94812e-06
9.84596e-06
1.0224e-05
1.04255e-05
1.06354e-05
1.18163e-05
1.33789e-05
1.31367e-05
1.1829e-05
1.14207e-05
1.12241e-05
1.1401e-05
1.20306e-05
1.25597e-05
1.26786e-05
1.26212e-05
1.30264e-05
1.38318e-05
1.31942e-05
1.2376e-05
1.23111e-05
9.39948e-06
9.53359e-06
9.41284e-06
9.33172e-06
9.72082e-06
9.95325e-06
1.02911e-05
1.14536e-05
1.29344e-05
1.25134e-05
1.12812e-05
1.08959e-05
1.06881e-05
1.09299e-05
1.15786e-05
1.20681e-05
1.2162e-05
1.21138e-05
1.2563e-05
1.33432e-05
1.27235e-05
1.19231e-05
1.18591e-05
8.9617e-06
9.07718e-06
8.90223e-06
8.85564e-06
9.25517e-06
9.54624e-06
9.97591e-06
1.11094e-05
1.25002e-05
1.1904e-05
1.0775e-05
1.03871e-05
1.01866e-05
1.04926e-05
1.11512e-05
1.15975e-05
1.1668e-05
1.16306e-05
1.21258e-05
1.28737e-05
1.22717e-05
1.14916e-05
1.14244e-05
8.55055e-06
8.63994e-06
8.41882e-06
8.41817e-06
8.83404e-06
9.20154e-06
9.67913e-06
1.07893e-05
1.20694e-05
1.13206e-05
1.03097e-05
9.90079e-06
9.72396e-06
1.00862e-05
1.07419e-05
1.11455e-05
1.12009e-05
1.11785e-05
1.17191e-05
1.24207e-05
1.18379e-05
1.10776e-05
1.10087e-05
8.16591e-06
8.21728e-06
7.96542e-06
8.01622e-06
8.46173e-06
8.90925e-06
9.39326e-06
1.04895e-05
1.16456e-05
1.07725e-05
9.87794e-06
9.43894e-06
9.30215e-06
9.71404e-06
1.03556e-05
1.07133e-05
1.07548e-05
1.07514e-05
1.13441e-05
1.19989e-05
1.14244e-05
1.06843e-05
1.06122e-05
7.80689e-06
7.80907e-06
7.54447e-06
7.64899e-06
8.14129e-06
8.65373e-06
9.11568e-06
1.02131e-05
1.12265e-05
1.02698e-05
9.47312e-06
9.00301e-06
8.91668e-06
9.3697e-06
9.99038e-06
1.03065e-05
1.03367e-05
1.03525e-05
1.09963e-05
1.15913e-05
1.10347e-05
1.03158e-05
1.02426e-05
7.04211e-06
7.46879e-06
7.41621e-06
7.15644e-06
7.31572e-06
7.87073e-06
8.4168e-06
8.83886e-06
9.93422e-06
1.07872e-05
9.81376e-06
9.08668e-06
8.59483e-06
8.56765e-06
9.05411e-06
9.6452e-06
9.91987e-06
9.94192e-06
9.98195e-06
1.06811e-05
1.12056e-05
1.06657e-05
9.97003e-06
9.89615e-06
6.74053e-06
7.14893e-06
7.0406e-06
6.80187e-06
7.01645e-06
7.64361e-06
8.18154e-06
8.56587e-06
9.63082e-06
1.03329e-05
9.40324e-06
8.71104e-06
8.21068e-06
8.2471e-06
8.76222e-06
9.32287e-06
9.56104e-06
9.5747e-06
9.63848e-06
1.03947e-05
1.08494e-05
1.03251e-05
9.65392e-06
9.57813e-06
5.969e-06
6.45981e-06
6.84493e-06
6.68196e-06
6.47971e-06
6.75231e-06
7.45082e-06
7.93899e-06
8.31265e-06
9.33021e-06
9.87717e-06
9.03096e-06
8.34246e-06
7.8523e-06
7.95427e-06
8.49154e-06
9.01815e-06
9.22586e-06
9.23647e-06
9.32877e-06
1.01435e-05
1.05178e-05
1.00085e-05
9.36066e-06
9.28592e-06
5.69337e-06
6.19627e-06
6.56124e-06
6.34224e-06
6.18781e-06
6.5246e-06
7.28019e-06
7.67933e-06
8.08765e-06
9.05402e-06
9.43401e-06
8.68671e-06
7.97791e-06
7.51714e-06
7.68622e-06
8.24412e-06
8.73779e-06
8.91929e-06
8.92634e-06
9.04906e-06
9.92631e-06
1.02168e-05
9.72137e-06
9.096e-06
9.01853e-06
5.437e-06
5.94657e-06
6.29105e-06
6.02188e-06
5.92359e-06
6.33313e-06
7.11821e-06
7.40339e-06
7.86241e-06
8.79685e-06
9.01384e-06
8.36238e-06
7.6227e-06
7.20945e-06
7.44324e-06
8.01637e-06
8.47782e-06
8.64192e-06
8.64963e-06
8.80533e-06
9.74278e-06
9.94387e-06
9.46041e-06
8.85495e-06
8.77864e-06
5.20259e-06
5.71258e-06
6.02705e-06
5.72133e-06
5.68506e-06
6.17482e-06
6.95184e-06
7.12922e-06
7.62479e-06
8.55006e-06
8.62397e-06
8.04946e-06
7.28008e-06
6.93023e-06
7.22822e-06
7.81361e-06
8.24339e-06
8.39247e-06
8.39964e-06
8.59172e-06
9.58592e-06
9.70128e-06
9.2258e-06
8.63819e-06
8.55962e-06
4.99111e-06
5.49063e-06
5.76977e-06
5.43958e-06
5.47183e-06
6.04544e-06
6.7649e-06
6.87485e-06
7.40034e-06
8.30136e-06
8.27142e-06
7.74621e-06
6.95834e-06
6.68253e-06
7.03945e-06
7.6313e-06
8.03251e-06
8.17374e-06
8.18079e-06
8.41009e-06
9.45012e-06
9.47844e-06
9.01792e-06
8.44646e-06
8.36766e-06
4.80252e-06
5.28686e-06
5.51473e-06
5.1767e-06
5.28381e-06
5.93567e-06
6.54948e-06
6.64916e-06
7.2002e-06
8.04917e-06
7.95615e-06
7.44944e-06
6.66095e-06
6.46709e-06
6.87975e-06
7.47201e-06
7.84407e-06
7.97844e-06
7.9852e-06
8.25735e-06
9.33321e-06
9.28449e-06
8.83191e-06
8.27586e-06
8.19525e-06
4.63585e-06
5.09039e-06
5.25469e-06
4.93312e-06
5.12255e-06
5.83315e-06
6.31437e-06
6.44707e-06
7.01418e-06
7.78084e-06
7.67344e-06
7.16141e-06
6.39138e-06
6.28071e-06
6.74191e-06
7.32957e-06
7.67763e-06
7.8069e-06
7.81332e-06
8.12947e-06
9.22083e-06
9.10808e-06
8.67109e-06
8.12926e-06
8.04705e-06
4.48659e-06
4.90057e-06
4.9939e-06
4.71008e-06
4.98733e-06
5.71161e-06
6.07214e-06
6.25709e-06
6.83177e-06
7.48501e-06
7.41749e-06
6.88182e-06
6.14945e-06
6.12199e-06
6.62537e-06
7.2008e-06
7.52497e-06
7.64843e-06
7.65943e-06
8.02352e-06
9.10098e-06
8.95556e-06
8.52703e-06
7.99814e-06
7.91628e-06
4.33382e-06
4.71426e-06
4.73388e-06
4.51088e-06
4.87744e-06
5.56512e-06
5.83637e-06
6.07994e-06
6.64933e-06
7.1882e-06
7.18322e-06
6.61303e-06
5.93278e-06
5.98321e-06
6.52096e-06
7.08027e-06
7.38047e-06
7.50096e-06
7.5201e-06
7.93222e-06
8.96707e-06
8.81459e-06
8.40466e-06
7.88577e-06
7.80269e-06
4.18307e-06
4.5143e-06
4.48134e-06
4.33825e-06
4.78978e-06
5.39505e-06
5.62466e-06
5.92817e-06
6.46764e-06
6.91184e-06
6.96526e-06
6.35681e-06
5.74093e-06
5.86413e-06
6.42744e-06
6.96177e-06
7.2335e-06
7.36249e-06
7.39365e-06
7.86145e-06
8.8409e-06
8.68472e-06
8.2885e-06
7.78139e-06
7.70219e-06
4.02822e-06
4.32148e-06
4.24379e-06
4.19513e-06
4.7034e-06
5.20618e-06
5.44507e-06
5.7993e-06
6.29062e-06
6.67066e-06
6.75791e-06
6.11576e-06
5.57103e-06
5.7595e-06
6.34066e-06
6.84906e-06
7.09319e-06
7.23191e-06
7.27593e-06
7.80404e-06
8.71882e-06
8.56539e-06
8.18471e-06
7.68694e-06
7.60996e-06
3.87285e-06
4.12698e-06
4.02733e-06
4.08245e-06
4.60803e-06
5.00649e-06
5.29594e-06
5.68445e-06
6.11769e-06
6.46121e-06
6.5545e-06
5.89437e-06
5.4258e-06
5.67265e-06
6.26051e-06
6.73375e-06
6.95917e-06
7.11136e-06
7.17158e-06
7.76661e-06
8.60428e-06
8.45094e-06
8.08431e-06
7.59803e-06
7.52655e-06
3.7251e-06
3.93983e-06
3.83773e-06
3.99904e-06
4.51006e-06
4.81252e-06
5.17596e-06
5.5771e-06
5.95081e-06
6.28211e-06
6.36203e-06
5.69512e-06
5.30351e-06
5.60186e-06
6.1884e-06
6.61884e-06
6.83323e-06
6.99859e-06
7.07688e-06
7.74372e-06
8.49576e-06
8.35221e-06
7.99625e-06
7.5172e-06
7.44779e-06
3.57687e-06
3.75801e-06
3.67874e-06
3.9374e-06
4.40831e-06
4.63635e-06
5.08027e-06
5.47173e-06
5.79302e-06
6.13301e-06
6.17755e-06
5.52274e-06
5.2078e-06
5.55005e-06
6.12449e-06
6.50511e-06
6.72405e-06
6.90053e-06
6.99952e-06
7.74325e-06
8.40134e-06
8.25991e-06
7.9188e-06
7.4475e-06
7.37908e-06
3.42579e-06
3.59555e-06
3.55096e-06
3.86488e-06
4.2899e-06
4.49136e-06
5.00564e-06
5.36644e-06
5.64572e-06
6.00229e-06
6.00269e-06
5.37578e-06
5.13514e-06
5.51548e-06
6.07321e-06
6.40483e-06
6.62608e-06
6.81137e-06
6.93593e-06
7.76102e-06
8.31875e-06
8.18834e-06
7.85734e-06
7.39323e-06
7.32514e-06
3.27848e-06
3.44485e-06
3.4561e-06
3.78719e-06
4.15188e-06
4.38585e-06
4.94717e-06
5.26084e-06
5.51837e-06
5.88501e-06
5.84169e-06
5.25649e-06
5.08598e-06
5.49413e-06
6.02182e-06
6.3112e-06
6.54435e-06
6.73631e-06
6.88981e-06
7.8003e-06
8.25171e-06
8.13167e-06
7.82153e-06
7.36518e-06
7.29709e-06
3.12717e-06
3.31185e-06
3.39403e-06
3.71363e-06
4.00619e-06
4.3207e-06
4.8983e-06
5.15771e-06
5.41997e-06
5.77882e-06
5.69636e-06
5.15982e-06
5.05486e-06
5.48241e-06
5.96791e-06
6.22679e-06
6.47287e-06
6.67275e-06
6.86577e-06
7.8629e-06
8.21203e-06
8.10959e-06
7.81374e-06
7.36556e-06
7.2971e-06
2.98772e-06
3.20091e-06
3.34839e-06
3.64941e-06
3.87079e-06
4.29604e-06
4.85128e-06
5.05757e-06
5.32907e-06
5.68115e-06
5.56345e-06
5.08327e-06
5.03755e-06
5.47408e-06
5.91124e-06
6.15366e-06
6.42361e-06
6.6306e-06
6.86958e-06
7.94309e-06
8.19702e-06
8.10783e-06
7.83518e-06
7.39405e-06
7.32515e-06
2.86064e-06
3.10864e-06
3.29682e-06
3.59058e-06
3.76122e-06
4.30956e-06
4.79952e-06
4.96147e-06
5.23672e-06
5.5878e-06
5.44255e-06
5.02248e-06
5.03439e-06
5.47493e-06
5.85998e-06
6.10178e-06
6.39598e-06
6.61158e-06
6.90252e-06
8.0347e-06
8.21381e-06
8.13947e-06
7.881e-06
7.44844e-06
7.3809e-06
2.7517e-06
3.04189e-06
3.24813e-06
3.52134e-06
3.68985e-06
4.34474e-06
4.74767e-06
4.86625e-06
5.1487e-06
5.49575e-06
5.33867e-06
4.9813e-06
5.048e-06
5.48318e-06
5.81869e-06
6.07057e-06
6.39248e-06
6.6111e-06
6.96299e-06
8.13021e-06
8.25362e-06
8.19263e-06
7.95621e-06
7.52989e-06
7.4624e-06
2.6634e-06
3.01143e-06
3.21159e-06
3.4394e-06
3.65648e-06
4.38805e-06
4.69929e-06
4.778e-06
5.06769e-06
5.40932e-06
5.25147e-06
4.96513e-06
5.07757e-06
5.49471e-06
5.79124e-06
6.05789e-06
6.40554e-06
6.62827e-06
7.04836e-06
8.21602e-06
8.32601e-06
8.28111e-06
8.05581e-06
7.63755e-06
7.5719e-06
2.59875e-06
2.98492e-06
3.1817e-06
3.35647e-06
3.66181e-06
4.41494e-06
4.65618e-06
4.7035e-06
4.99536e-06
5.33453e-06
5.18931e-06
4.96853e-06
5.12313e-06
5.50776e-06
5.7739e-06
6.06776e-06
6.44187e-06
6.66628e-06
7.16148e-06
8.30511e-06
8.42265e-06
8.39528e-06
8.18946e-06
7.77428e-06
7.70774e-06
2.5573e-06
2.95646e-06
3.15891e-06
3.27599e-06
3.70074e-06
4.41923e-06
4.60721e-06
4.63472e-06
4.93739e-06
5.27366e-06
5.14876e-06
4.99532e-06
5.18194e-06
5.52641e-06
5.77234e-06
6.09454e-06
6.49147e-06
6.72465e-06
7.30683e-06
8.41755e-06
8.55154e-06
8.54447e-06
8.35001e-06
7.94091e-06
7.87471e-06
2.53629e-06
2.92981e-06
3.13402e-06
3.21316e-06
3.77288e-06
4.41696e-06
4.55397e-06
4.56528e-06
4.88505e-06
5.22802e-06
5.13198e-06
5.04511e-06
5.25474e-06
5.55024e-06
5.78568e-06
6.14423e-06
6.56328e-06
6.80577e-06
7.48163e-06
8.55428e-06
8.70862e-06
8.72181e-06
8.54583e-06
8.13942e-06
8.07222e-06
2.54246e-06
2.90289e-06
3.08599e-06
3.17862e-06
3.86874e-06
4.41865e-06
4.49934e-06
4.50772e-06
4.8443e-06
5.19423e-06
5.14279e-06
5.11261e-06
5.33472e-06
5.58053e-06
5.8159e-06
6.21165e-06
6.65136e-06
6.9094e-06
7.68581e-06
8.7251e-06
8.8968e-06
8.93334e-06
8.77187e-06
8.37191e-06
8.30511e-06
2.54154e-06
2.88065e-06
3.01434e-06
3.18092e-06
3.95892e-06
4.42593e-06
4.45474e-06
4.47279e-06
4.82995e-06
5.18729e-06
5.17552e-06
5.20529e-06
5.41656e-06
5.62105e-06
5.86572e-06
6.3003e-06
6.75486e-06
7.0387e-06
7.91862e-06
8.92027e-06
9.11711e-06
9.17639e-06
9.03455e-06
8.64042e-06
8.57469e-06
2.52851e-06
2.86012e-06
2.94202e-06
3.22358e-06
4.0262e-06
4.4395e-06
4.42762e-06
4.44647e-06
4.82045e-06
5.19351e-06
5.23756e-06
5.30999e-06
5.49951e-06
5.6696e-06
5.9344e-06
6.41092e-06
6.88402e-06
7.19644e-06
8.18186e-06
9.15389e-06
9.36983e-06
9.45443e-06
9.3309e-06
8.94714e-06
8.88502e-06
2.51775e-06
2.84503e-06
2.88861e-06
3.30385e-06
4.08218e-06
4.46069e-06
4.41143e-06
4.43602e-06
4.82807e-06
5.22605e-06
5.32422e-06
5.43983e-06
5.58995e-06
5.73284e-06
6.02441e-06
6.54016e-06
7.02872e-06
7.38617e-06
8.4801e-06
9.41634e-06
9.66245e-06
9.77144e-06
9.66811e-06
9.29477e-06
9.23855e-06
2.51052e-06
2.8373e-06
2.86161e-06
3.42237e-06
4.13791e-06
4.46988e-06
4.39345e-06
4.44609e-06
4.86043e-06
5.28016e-06
5.4403e-06
5.58403e-06
5.6848e-06
5.80665e-06
6.13821e-06
6.69523e-06
7.19172e-06
7.60988e-06
8.81048e-06
9.71938e-06
9.98909e-06
1.01252e-05
1.00453e-05
9.6871e-06
9.63955e-06
2.50141e-06
2.79696e-06
2.86688e-06
3.56758e-06
4.19709e-06
4.4621e-06
4.3755e-06
4.4625e-06
4.90126e-06
5.36286e-06
5.58175e-06
5.74316e-06
5.78382e-06
5.9003e-06
6.27432e-06
6.86524e-06
7.37728e-06
7.87199e-06
9.17936e-06
1.00621e-05
1.03676e-05
1.05293e-05
1.04673e-05
1.01243e-05
1.00907e-05
2.49643e-06
2.72962e-06
2.90886e-06
3.69799e-06
4.26923e-06
4.45923e-06
4.36156e-06
4.48657e-06
4.97302e-06
5.47373e-06
5.75017e-06
5.9071e-06
5.89507e-06
6.0096e-06
6.43577e-06
7.06245e-06
7.57732e-06
8.17361e-06
9.59108e-06
1.04476e-05
1.07816e-05
1.09746e-05
1.09417e-05
1.06153e-05
1.05971e-05
2.48974e-06
2.6561e-06
2.99094e-06
3.81925e-06
4.34618e-06
4.47408e-06
4.35006e-06
4.52371e-06
5.05533e-06
5.6113e-06
5.94042e-06
6.07216e-06
6.01236e-06
6.14104e-06
6.62043e-06
7.27434e-06
7.79053e-06
8.51209e-06
1.00371e-05
1.08851e-05
1.12581e-05
1.14792e-05
1.14642e-05
1.1162e-05
1.11666e-05
2.48472e-06
2.59397e-06
3.10835e-06
3.9362e-06
4.42176e-06
4.4972e-06
4.35651e-06
4.58158e-06
5.16884e-06
5.78185e-06
6.1568e-06
6.24473e-06
6.14533e-06
6.29592e-06
6.83102e-06
7.50668e-06
8.0285e-06
8.89402e-06
1.05223e-05
1.13639e-05
1.17779e-05
1.20346e-05
1.20547e-05
1.177e-05
1.18001e-05
2.48934e-06
2.56265e-06
3.26269e-06
4.05125e-06
4.50799e-06
4.53569e-06
4.38512e-06
4.65573e-06
5.30576e-06
5.98135e-06
6.39324e-06
6.41395e-06
6.28679e-06
6.4736e-06
7.06314e-06
7.76636e-06
8.29935e-06
9.3213e-06
1.10486e-05
1.1902e-05
1.23535e-05
1.26522e-05
1.26988e-05
1.24445e-05
1.25064e-05
2.45017e-06
2.56587e-06
3.41754e-06
4.16473e-06
4.58967e-06
4.58335e-06
4.41896e-06
4.74245e-06
5.4669e-06
6.2007e-06
6.63434e-06
6.5793e-06
6.43418e-06
6.66213e-06
7.30744e-06
8.02912e-06
8.59118e-06
9.77185e-06
1.15872e-05
1.24547e-05
1.29639e-05
1.33007e-05
1.33844e-05
1.31693e-05
1.32768e-05
2.38598e-06
2.63236e-06
3.57965e-06
4.27627e-06
4.65585e-06
4.61931e-06
4.47703e-06
4.87364e-06
5.69316e-06
6.50616e-06
6.942e-06
6.80615e-06
6.65252e-06
6.94033e-06
7.64135e-06
8.38531e-06
8.99072e-06
1.03559e-05
1.22703e-05
1.31713e-05
1.37364e-05
1.41214e-05
1.42463e-05
1.4062e-05
1.42132e-05
2.2669e-06
2.68284e-06
3.65795e-06
4.31688e-06
4.57903e-06
4.55675e-06
4.4699e-06
4.90267e-06
5.74153e-06
6.50883e-06
6.9097e-06
6.7309e-06
6.6054e-06
6.93024e-06
7.62723e-06
8.34399e-06
9.03743e-06
1.05196e-05
1.23663e-05
1.32711e-05
1.38777e-05
1.43114e-05
1.44848e-05
1.43802e-05
1.46299e-05
2.30002e-06
3.09431e-06
4.04788e-06
4.64984e-06
5.00068e-06
4.80003e-06
4.76654e-06
5.41636e-06
6.62697e-06
7.73383e-06
8.07932e-06
7.72637e-06
7.52632e-06
7.97061e-06
8.86389e-06
9.73358e-06
1.0545e-05
1.23559e-05
1.45878e-05
1.56515e-05
1.63707e-05
1.68704e-05
1.70875e-05
1.70263e-05
1.73112e-05
2.17842e-06
2.39664e-06
2.5697e-06
2.71e-06
2.86055e-06
3.02542e-06
3.28073e-06
3.63467e-06
4.01656e-06
4.31308e-06
4.50281e-06
4.7296e-06
5.13242e-06
5.72175e-06
6.43394e-06
7.21288e-06
8.08586e-06
9.16412e-06
1.03132e-05
1.13644e-05
1.24697e-05
1.35547e-05
1.43876e-05
1.47324e-05
1.49245e-05
4.90461e-06
1.24881e-06
4.16274e-07
5.832e-07
5.78081e-07
5.89691e-07
5.98003e-07
6.05284e-07
6.11675e-07
6.17431e-07
6.22777e-07
6.27895e-07
6.32926e-07
6.37968e-07
6.43114e-07
6.48462e-07
6.5413e-07
6.60246e-07
6.66939e-07
6.74334e-07
6.8253e-07
6.91594e-07
7.01563e-07
7.12463e-07
7.24317e-07
7.37134e-07
7.50893e-07
7.65534e-07
7.80969e-07
7.97052e-07
8.13521e-07
8.29997e-07
8.4609e-07
8.61492e-07
8.76047e-07
8.89689e-07
9.0232e-07
9.13718e-07
9.23651e-07
9.32093e-07
9.38777e-07
9.43321e-07
9.45219e-07
9.44146e-07
9.39964e-07
9.32784e-07
9.23048e-07
9.11668e-07
8.99538e-07
8.87465e-07
8.76054e-07
8.65736e-07
8.56615e-07
8.48575e-07
8.41464e-07
8.35292e-07
8.30266e-07
8.26643e-07
8.24807e-07
8.25443e-07
8.29571e-07
8.38711e-07
8.55423e-07
8.83932e-07
9.31294e-07
1.00832e-06
1.12893e-06
1.30985e-06
1.57575e-06
1.96589e-06
2.53314e-06
3.32712e-06
4.36521e-06
5.62242e-06
7.0892e-06
8.86812e-06
1.12312e-05
1.4455e-05
1.83693e-05
2.19729e-05
2.45715e-05
2.63785e-05
2.74832e-05
2.79059e-05
2.76474e-05
2.68268e-05
2.57947e-05
2.49124e-05
2.42257e-05
2.3549e-05
2.28384e-05
2.20791e-05
2.12354e-05
2.03772e-05
1.94737e-05
1.84975e-05
1.74711e-05
1.64387e-05
1.54951e-05
9.42792e-06
1.61756e-06
4.81868e-07
5.95281e-07
5.95311e-07
6.01893e-07
6.06678e-07
6.10274e-07
6.12886e-07
6.14651e-07
6.15703e-07
6.16164e-07
6.16159e-07
6.15758e-07
6.14981e-07
6.1384e-07
6.12366e-07
6.10584e-07
6.08513e-07
6.06192e-07
6.03686e-07
6.01068e-07
5.98408e-07
5.95741e-07
5.93114e-07
5.9058e-07
5.88245e-07
5.86214e-07
5.84607e-07
5.8357e-07
5.83265e-07
5.83902e-07
5.85712e-07
5.88897e-07
5.93602e-07
5.99909e-07
6.07808e-07
6.17277e-07
6.28306e-07
6.41024e-07
6.55653e-07
6.72313e-07
6.90595e-07
7.09277e-07
7.26227e-07
7.39012e-07
7.45948e-07
7.46165e-07
7.39459e-07
7.26055e-07
7.07009e-07
6.8441e-07
6.6166e-07
6.41661e-07
6.25005e-07
6.09997e-07
5.95492e-07
5.81173e-07
5.6609e-07
5.49783e-07
5.33469e-07
5.177e-07
5.02389e-07
4.88548e-07
4.78478e-07
4.80809e-07
5.14418e-07
5.85143e-07
6.53436e-07
6.5302e-07
5.74494e-07
5.02492e-07
5.13802e-07
5.52892e-07
5.98007e-07
9.96568e-07
2.7974e-06
7.45248e-06
1.64833e-05
2.66828e-05
3.32953e-05
3.79688e-05
4.19771e-05
4.52066e-05
4.73126e-05
4.80895e-05
4.72451e-05
4.58186e-05
4.50729e-05
4.3536e-05
4.15188e-05
3.90756e-05
3.62645e-05
3.32484e-05
2.92648e-05
2.53484e-05
2.22561e-05
1.99311e-05
1.82868e-05
9.46614e-06
1.5173e-06
5.32672e-07
6.15596e-07
6.16877e-07
6.2213e-07
6.26235e-07
6.29311e-07
6.3158e-07
6.33181e-07
6.34229e-07
6.34823e-07
6.35088e-07
6.35128e-07
6.34994e-07
6.34703e-07
6.34298e-07
6.3383e-07
6.33334e-07
6.32849e-07
6.32415e-07
6.32085e-07
6.31927e-07
6.31986e-07
6.32278e-07
6.32792e-07
6.33557e-07
6.34613e-07
6.36003e-07
6.37778e-07
6.4e-07
6.42729e-07
6.46024e-07
6.49946e-07
6.54565e-07
6.59997e-07
6.66385e-07
6.73862e-07
6.8247e-07
6.92151e-07
7.02927e-07
7.153e-07
7.3e-07
7.47516e-07
7.67196e-07
7.86958e-07
8.0417e-07
8.16435e-07
8.22551e-07
8.21666e-07
8.13129e-07
7.96451e-07
7.73439e-07
7.4961e-07
7.29813e-07
7.1394e-07
6.9961e-07
6.86659e-07
6.74627e-07
6.61604e-07
6.48031e-07
6.35627e-07
6.24234e-07
6.14735e-07
6.08058e-07
6.06188e-07
6.24443e-07
6.93068e-07
8.12811e-07
9.28946e-07
9.73748e-07
1.01623e-06
1.17229e-06
1.45509e-06
1.76915e-06
2.19858e-06
3.37816e-06
6.18342e-06
1.15602e-05
1.94179e-05
2.59481e-05
3.04049e-05
3.39852e-05
3.70882e-05
3.92118e-05
4.03195e-05
4.00526e-05
3.89825e-05
3.85364e-05
3.76799e-05
3.60605e-05
3.39925e-05
3.16006e-05
2.90717e-05
2.5425e-05
2.18902e-05
1.90752e-05
1.69445e-05
1.54686e-05
8.85256e-06
1.44817e-06
5.70144e-07
6.42306e-07
6.4403e-07
6.47442e-07
6.50438e-07
6.52529e-07
6.53918e-07
6.54741e-07
6.55093e-07
6.55056e-07
6.54714e-07
6.54173e-07
6.53501e-07
6.52705e-07
6.51798e-07
6.50824e-07
6.49809e-07
6.48791e-07
6.47795e-07
6.46864e-07
6.46057e-07
6.45449e-07
6.45093e-07
6.44992e-07
6.45158e-07
6.45642e-07
6.46498e-07
6.4779e-07
6.49588e-07
6.51971e-07
6.55036e-07
6.58883e-07
6.63616e-07
6.69332e-07
6.76147e-07
6.84201e-07
6.9364e-07
7.04503e-07
7.16548e-07
7.29728e-07
7.44575e-07
7.61811e-07
7.81864e-07
8.03542e-07
8.24274e-07
8.41135e-07
8.51859e-07
8.55491e-07
8.51568e-07
8.39444e-07
8.18941e-07
7.93683e-07
7.70301e-07
7.51506e-07
7.35145e-07
7.19987e-07
7.06122e-07
6.91977e-07
6.76686e-07
6.61988e-07
6.48167e-07
6.35953e-07
6.26701e-07
6.22357e-07
6.33565e-07
6.86622e-07
7.88019e-07
9.04155e-07
9.45558e-07
9.55428e-07
1.04289e-06
1.26216e-06
1.51814e-06
1.83644e-06
2.71278e-06
5.17154e-06
1.01463e-05
1.80967e-05
2.53004e-05
3.0304e-05
3.41103e-05
3.73899e-05
3.98127e-05
4.13611e-05
4.15336e-05
4.05367e-05
4.00468e-05
3.89761e-05
3.72764e-05
3.50417e-05
3.23749e-05
2.95476e-05
2.52999e-05
2.15108e-05
1.85927e-05
1.64426e-05
1.49919e-05
7.18542e-06
1.14045e-06
6.07397e-07
6.73684e-07
6.75882e-07
6.77868e-07
6.80115e-07
6.81624e-07
6.82539e-07
6.83001e-07
6.83104e-07
6.82919e-07
6.82507e-07
6.81958e-07
6.81358e-07
6.80715e-07
6.80017e-07
6.79304e-07
6.78598e-07
6.77925e-07
6.77307e-07
6.76778e-07
6.76377e-07
6.76171e-07
6.76227e-07
6.76553e-07
6.77139e-07
6.78023e-07
6.79255e-07
6.80893e-07
6.83001e-07
6.85654e-07
6.88939e-07
6.92953e-07
6.97792e-07
7.03551e-07
7.10339e-07
7.18288e-07
7.27554e-07
7.38327e-07
7.50613e-07
7.64076e-07
7.79008e-07
7.9604e-07
8.16019e-07
8.38672e-07
8.61741e-07
8.82558e-07
8.97997e-07
9.06323e-07
9.06775e-07
8.98697e-07
8.8138e-07
8.56481e-07
8.30662e-07
8.0909e-07
7.91004e-07
7.74312e-07
7.59065e-07
7.44253e-07
7.28209e-07
7.12158e-07
6.97124e-07
6.83519e-07
6.72289e-07
6.6493e-07
6.69463e-07
7.0915e-07
8.05196e-07
9.32162e-07
9.95967e-07
1.00466e-06
1.06563e-06
1.27022e-06
1.53681e-06
1.81421e-06
2.42445e-06
4.28252e-06
8.15677e-06
1.50592e-05