/*--------------------------------*- C++ -*----------------------------------*\
  =========                 |
  \\      /  F ield         | OpenFOAM: The Open Source CFD Toolbox
   \\    /   O peration     | Website:  https://openfoam.org
    \\  /    A nd           | Version:  9
     \\/     M anipulation  |
\*---------------------------------------------------------------------------*/
FoamFile
{
    format      ascii;
    class       volScalarField;
    location    "2250";
    object      nut;
}
// * * * * * * * * * * * * * * * * * * * * * * * * * * * * * * * * * * * * * //

dimensions      [0 2 -1 0 0 0 0];

internalField   nonuniform List<scalar> 
13354
(
2.63988e-06
2.75311e-06
2.83227e-06
2.91147e-06
3.16271e-06
3.83709e-06
5.27583e-06
7.17348e-06
7.96318e-06
6.51033e-06
4.3224e-06
2.7905e-06
1.07981e-06
2.77721e-06
2.76248e-06
2.78758e-06
2.82011e-06
2.99539e-06
3.59736e-06
5.37664e-06
8.69188e-06
1.06529e-05
8.13748e-06
4.09073e-06
2.02385e-06
1.2358e-06
3.0084e-06
2.82828e-06
2.79248e-06
2.80823e-06
2.92122e-06
3.46219e-06
5.51161e-06
1.02572e-05
1.38037e-05
1.06003e-05
4.829e-06
1.90633e-06
1.25271e-06
3.20245e-06
2.94713e-06
2.86075e-06
2.87578e-06
2.92168e-06
3.37442e-06
5.63685e-06
1.13917e-05
1.60294e-05
1.29651e-05
6.31546e-06
2.62072e-06
1.67744e-06
3.2905e-06
3.096e-06
2.93517e-06
2.96699e-06
2.9657e-06
3.30372e-06
5.64089e-06
1.19336e-05
1.74827e-05
1.53149e-05
8.57746e-06
4.04432e-06
2.4476e-06
3.18468e-06
3.2214e-06
3.02396e-06
3.08091e-06
3.05957e-06
3.26944e-06
5.46478e-06
1.18777e-05
1.85128e-05
1.80069e-05
1.14983e-05
5.88166e-06
3.32311e-06
3.03705e-06
3.32747e-06
3.13039e-06
3.17721e-06
3.16711e-06
3.26817e-06
5.15947e-06
1.12596e-05
1.8846e-05
2.03164e-05
1.45365e-05
7.89379e-06
4.12972e-06
2.93225e-06
3.42728e-06
3.23978e-06
3.24113e-06
3.25954e-06
3.28413e-06
4.78705e-06
1.02917e-05
1.82079e-05
2.13958e-05
1.6951e-05
9.71077e-06
4.85824e-06
2.86398e-06
3.4492e-06
3.31195e-06
3.29861e-06
3.3254e-06
3.2938e-06
4.34038e-06
8.97105e-06
1.64574e-05
2.11174e-05
1.8325e-05
1.10936e-05
5.44727e-06
2.8277e-06
3.34134e-06
3.32317e-06
3.34538e-06
3.37055e-06
3.27226e-06
3.82165e-06
7.35638e-06
1.42942e-05
1.97288e-05
1.83792e-05
1.17631e-05
5.83353e-06
2.79048e-06
3.17444e-06
3.27096e-06
3.36456e-06
3.37384e-06
3.17593e-06
3.31278e-06
5.93755e-06
1.19229e-05
1.74421e-05
1.72834e-05
1.16797e-05
5.97645e-06
2.73464e-06
3.04066e-06
3.15864e-06
3.29263e-06
3.28399e-06
3.03929e-06
2.97751e-06
4.77363e-06
9.51234e-06
1.45776e-05
1.53877e-05
1.10381e-05
5.9272e-06
2.6566e-06
2.91204e-06
3.0083e-06
3.13705e-06
3.12848e-06
2.94086e-06
2.77041e-06
3.87634e-06
7.32588e-06
1.15656e-05
1.30321e-05
1.0021e-05
5.7213e-06
2.56343e-06
2.77517e-06
2.86038e-06
2.96053e-06
2.97715e-06
2.85224e-06
2.64332e-06
3.23123e-06
5.55589e-06
8.81326e-06
1.05334e-05
8.73096e-06
5.35992e-06
2.46515e-06
2.64247e-06
2.72149e-06
2.801e-06
2.82809e-06
2.75931e-06
2.55664e-06
2.79517e-06
4.23637e-06
6.54844e-06
8.20895e-06
7.32228e-06
4.87788e-06
2.36246e-06
2.50924e-06
2.58506e-06
2.65221e-06
2.68252e-06
2.65617e-06
2.48406e-06
2.51493e-06
3.31168e-06
4.80517e-06
6.19979e-06
5.95228e-06
4.33522e-06
2.25746e-06
2.37755e-06
2.4496e-06
2.50674e-06
2.53879e-06
2.5431e-06
2.41056e-06
2.33531e-06
2.70064e-06
3.54955e-06
4.57666e-06
4.71736e-06
3.77194e-06
2.15206e-06
2.24954e-06
2.31717e-06
2.36499e-06
2.39856e-06
2.42224e-06
2.32975e-06
2.21205e-06
2.31677e-06
2.71155e-06
3.38675e-06
3.68488e-06
3.22739e-06
2.04598e-06
2.12615e-06
2.19284e-06
2.23305e-06
2.26631e-06
2.30161e-06
2.24067e-06
2.11721e-06
2.08743e-06
2.19804e-06
2.58743e-06
2.89286e-06
2.74386e-06
1.94285e-06
2.0079e-06
2.07267e-06
2.1064e-06
2.14138e-06
2.18347e-06
2.14473e-06
2.03391e-06
1.95498e-06
1.91113e-06
2.09145e-06
2.33356e-06
2.33531e-06
1.84792e-06
1.90094e-06
1.96033e-06
1.98618e-06
2.02324e-06
2.06846e-06
2.04487e-06
1.95476e-06
1.87303e-06
1.76659e-06
1.81187e-06
1.96429e-06
2.02602e-06
1.76394e-06
1.8069e-06
1.85887e-06
1.87817e-06
1.91434e-06
1.95935e-06
1.94663e-06
1.87815e-06
1.81481e-06
1.70025e-06
1.6769e-06
1.75127e-06
1.81031e-06
1.69033e-06
1.72492e-06
1.76778e-06
1.78064e-06
1.81516e-06
1.85925e-06
1.85468e-06
1.80478e-06
1.76516e-06
1.66974e-06
1.61851e-06
1.64135e-06
1.67834e-06
1.6257e-06
1.65429e-06
1.68595e-06
1.69293e-06
1.72591e-06
1.76878e-06
1.77029e-06
1.73487e-06
1.71662e-06
1.64619e-06
1.59047e-06
1.59129e-06
1.61112e-06
1.5699e-06
1.59395e-06
1.61267e-06
1.6153e-06
1.64805e-06
1.68866e-06
1.69519e-06
1.67076e-06
1.66569e-06
1.61568e-06
1.56935e-06
1.56514e-06
1.57696e-06
1.52244e-06
1.5423e-06
1.54893e-06
1.54796e-06
1.58144e-06
1.61976e-06
1.63183e-06
1.61278e-06
1.61242e-06
1.5792e-06
1.54052e-06
1.54185e-06
1.55956e-06
1.48236e-06
1.4988e-06
1.49522e-06
1.49052e-06
1.52611e-06
1.56401e-06
1.57898e-06
1.56254e-06
1.56226e-06
1.53885e-06
1.50504e-06
1.51132e-06
1.53896e-06
1.44975e-06
1.46301e-06
1.45016e-06
1.44202e-06
1.48136e-06
1.5186e-06
1.53562e-06
1.52089e-06
1.51905e-06
1.49857e-06
1.46406e-06
1.47645e-06
1.50967e-06
1.42424e-06
1.43277e-06
1.41232e-06
1.40328e-06
1.44445e-06
1.48198e-06
1.50103e-06
1.48808e-06
1.48197e-06
1.46282e-06
1.42878e-06
1.43721e-06
1.47647e-06
1.40407e-06
1.40656e-06
1.38092e-06
1.37164e-06
1.41341e-06
1.45217e-06
1.4739e-06
1.46149e-06
1.45283e-06
1.43741e-06
1.39713e-06
1.40238e-06
1.43797e-06
1.38816e-06
1.38399e-06
1.35377e-06
1.34572e-06
1.38745e-06
1.42693e-06
1.45155e-06
1.44004e-06
1.43143e-06
1.41657e-06
1.37423e-06
1.36933e-06
1.40235e-06
1.3759e-06
1.3637e-06
1.3304e-06
1.32455e-06
1.36611e-06
1.40556e-06
1.43246e-06
1.4222e-06
1.41268e-06
1.40254e-06
1.35631e-06
1.34414e-06
1.37288e-06
1.36609e-06
1.34563e-06
1.31046e-06
1.30745e-06
1.34794e-06
1.38613e-06
1.41443e-06
1.40639e-06
1.39742e-06
1.39053e-06
1.3437e-06
1.32519e-06
1.34948e-06
1.35836e-06
1.3294e-06
1.29375e-06
1.29388e-06
1.33274e-06
1.369e-06
1.39894e-06
1.39294e-06
1.38396e-06
1.38108e-06
1.33337e-06
1.31029e-06
1.33074e-06
1.35198e-06
1.31501e-06
1.28021e-06
1.28361e-06
1.31967e-06
1.35483e-06
1.38482e-06
1.38029e-06
1.37232e-06
1.37263e-06
1.32485e-06
1.29818e-06
1.31525e-06
1.29091e-06
1.34652e-06
1.30255e-06
1.2693e-06
1.2758e-06
1.30867e-06
1.34302e-06
1.37308e-06
1.36902e-06
1.36181e-06
1.36557e-06
1.31799e-06
1.28815e-06
1.30154e-06
1.08038e-06
1.09532e-06
1.1237e-06
1.16486e-06
1.20844e-06
1.22654e-06
1.19298e-06
1.20552e-06
1.29658e-06
1.34166e-06
1.29187e-06
1.26069e-06
1.27021e-06
1.29927e-06
1.33363e-06
1.36358e-06
1.35952e-06
1.35243e-06
1.35933e-06
1.31293e-06
1.28013e-06
1.28965e-06
1.08287e-06
1.09701e-06
1.1259e-06
1.16551e-06
1.20851e-06
1.21917e-06
1.18256e-06
1.20384e-06
1.30498e-06
1.33703e-06
1.28284e-06
1.25385e-06
1.26601e-06
1.29164e-06
1.3263e-06
1.35663e-06
1.35177e-06
1.34404e-06
1.35443e-06
1.30992e-06
1.27469e-06
1.28013e-06
1.08564e-06
1.09861e-06
1.12856e-06
1.16578e-06
1.20846e-06
1.21157e-06
1.17322e-06
1.20561e-06
1.31567e-06
1.33258e-06
1.27535e-06
1.24878e-06
1.26293e-06
1.28544e-06
1.32111e-06
1.35166e-06
1.34589e-06
1.33769e-06
1.35092e-06
1.30829e-06
1.27183e-06
1.27435e-06
1.08857e-06
1.10014e-06
1.13121e-06
1.1653e-06
1.20802e-06
1.20378e-06
1.16537e-06
1.21102e-06
1.3271e-06
1.32825e-06
1.26901e-06
1.24499e-06
1.26046e-06
1.28081e-06
1.31768e-06
1.34771e-06
1.3416e-06
1.33351e-06
1.34915e-06
1.30803e-06
1.27107e-06
1.27217e-06
1.09156e-06
1.10195e-06
1.13357e-06
1.16398e-06
1.207e-06
1.19594e-06
1.15957e-06
1.2203e-06
1.33867e-06
1.32428e-06
1.26374e-06
1.24254e-06
1.25823e-06
1.27732e-06
1.31602e-06
1.34497e-06
1.33881e-06
1.33118e-06
1.34942e-06
1.30937e-06
1.27185e-06
1.27297e-06
1.09453e-06
1.10393e-06
1.13547e-06
1.16212e-06
1.20529e-06
1.18807e-06
1.156e-06
1.23343e-06
1.35014e-06
1.32096e-06
1.25943e-06
1.24143e-06
1.25634e-06
1.27495e-06
1.31618e-06
1.34393e-06
1.33737e-06
1.33086e-06
1.35174e-06
1.31221e-06
1.2739e-06
1.27577e-06
1.05911e-06
1.09743e-06
1.10595e-06
1.13668e-06
1.15991e-06
1.20309e-06
1.18031e-06
1.15518e-06
1.25003e-06
1.36078e-06
1.31843e-06
1.25599e-06
1.2414e-06
1.25446e-06
1.27354e-06
1.31709e-06
1.34405e-06
1.33737e-06
1.33248e-06
1.35649e-06
1.31683e-06
1.27699e-06
1.27963e-06
1.06387e-06
1.10024e-06
1.10832e-06
1.13697e-06
1.15763e-06
1.20048e-06
1.17306e-06
1.15745e-06
1.26944e-06
1.37032e-06
1.31683e-06
1.25364e-06
1.24266e-06
1.25312e-06
1.27334e-06
1.3189e-06
1.34522e-06
1.33844e-06
1.33584e-06
1.36352e-06
1.32343e-06
1.28159e-06
1.2844e-06
1.06904e-06
1.10292e-06
1.11099e-06
1.13645e-06
1.15568e-06
1.19758e-06
1.1667e-06
1.16324e-06
1.29066e-06
1.3786e-06
1.31607e-06
1.25258e-06
1.24495e-06
1.25254e-06
1.27468e-06
1.32214e-06
1.34758e-06
1.34085e-06
1.34098e-06
1.37274e-06
1.33175e-06
1.28737e-06
1.29005e-06
1.07453e-06
1.10535e-06
1.11374e-06
1.13508e-06
1.15422e-06
1.19454e-06
1.16169e-06
1.17279e-06
1.31279e-06
1.3861e-06
1.316e-06
1.25307e-06
1.2481e-06
1.2526e-06
1.27731e-06
1.32646e-06
1.35093e-06
1.34466e-06
1.34808e-06
1.38417e-06
1.34196e-06
1.29463e-06
1.29657e-06
1.08015e-06
1.1077e-06
1.11647e-06
1.13306e-06
1.15355e-06
1.19142e-06
1.15864e-06
1.18615e-06
1.33488e-06
1.39346e-06
1.31656e-06
1.2556e-06
1.25191e-06
1.2537e-06
1.2816e-06
1.33181e-06
1.35522e-06
1.34966e-06
1.35671e-06
1.39756e-06
1.35384e-06
1.30338e-06
1.30444e-06
1.08574e-06
1.11009e-06
1.11921e-06
1.13077e-06
1.15375e-06
1.18826e-06
1.15813e-06
1.20314e-06
1.3562e-06
1.40105e-06
1.31742e-06
1.25972e-06
1.25568e-06
1.25573e-06
1.28763e-06
1.33869e-06
1.36091e-06
1.35601e-06
1.36694e-06
1.41244e-06
1.36705e-06
1.31341e-06
1.3139e-06
1.09109e-06
1.11253e-06
1.12186e-06
1.12845e-06
1.15479e-06
1.18531e-06
1.16064e-06
1.22312e-06
1.37661e-06
1.40934e-06
1.31871e-06
1.26516e-06
1.25931e-06
1.25897e-06
1.29542e-06
1.34688e-06
1.3677e-06
1.36349e-06
1.37869e-06
1.42919e-06
1.38139e-06
1.32456e-06
1.32465e-06
1.09633e-06
1.11552e-06
1.12395e-06
1.12643e-06
1.15646e-06
1.18286e-06
1.16657e-06
1.24509e-06
1.39608e-06
1.41794e-06
1.32021e-06
1.2713e-06
1.2624e-06
1.26357e-06
1.30537e-06
1.35681e-06
1.37556e-06
1.3717e-06
1.39141e-06
1.4467e-06
1.39671e-06
1.33678e-06
1.3368e-06
1.10163e-06
1.1191e-06
1.12545e-06
1.12482e-06
1.15839e-06
1.18143e-06
1.17601e-06
1.26786e-06
1.41534e-06
1.42656e-06
1.32209e-06
1.27762e-06
1.26481e-06
1.26928e-06
1.31684e-06
1.36813e-06
1.38472e-06
1.38089e-06
1.40507e-06
1.46426e-06
1.41246e-06
1.34968e-06
1.34982e-06
1.10698e-06
1.12325e-06
1.12615e-06
1.12375e-06
1.1605e-06
1.18168e-06
1.18893e-06
1.29066e-06
1.435e-06
1.43426e-06
1.32448e-06
1.28355e-06
1.26697e-06
1.2766e-06
1.32988e-06
1.38028e-06
1.3944e-06
1.39058e-06
1.41965e-06
1.48238e-06
1.42871e-06
1.36326e-06
1.3634e-06
1.11253e-06
1.12794e-06
1.12613e-06
1.12345e-06
1.16295e-06
1.18456e-06
1.20514e-06
1.31346e-06
1.45602e-06
1.44057e-06
1.32764e-06
1.28843e-06
1.26879e-06
1.28499e-06
1.34397e-06
1.39327e-06
1.40488e-06
1.40084e-06
1.43487e-06
1.50004e-06
1.44528e-06
1.37747e-06
1.3775e-06
1.11845e-06
1.13301e-06
1.12563e-06
1.12421e-06
1.16613e-06
1.19112e-06
1.2243e-06
1.33642e-06
1.47814e-06
1.44519e-06
1.33215e-06
1.29266e-06
1.2712e-06
1.29467e-06
1.35845e-06
1.40613e-06
1.41564e-06
1.41192e-06
1.45127e-06
1.51736e-06
1.46156e-06
1.39187e-06
1.3916e-06
1.12484e-06
1.13807e-06
1.12488e-06
1.12624e-06
1.17081e-06
1.20235e-06
1.24589e-06
1.36068e-06
1.50026e-06
1.44829e-06
1.33816e-06
1.29624e-06
1.2747e-06
1.30599e-06
1.37386e-06
1.41921e-06
1.42658e-06
1.42342e-06
1.46884e-06
1.53522e-06
1.47836e-06
1.40695e-06
1.40596e-06
1.13189e-06
1.14295e-06
1.12419e-06
1.12986e-06
1.178e-06
1.21863e-06
1.26905e-06
1.38691e-06
1.52172e-06
1.45114e-06
1.34618e-06
1.29996e-06
1.28003e-06
1.31893e-06
1.38966e-06
1.43239e-06
1.43833e-06
1.4363e-06
1.48819e-06
1.5533e-06
1.49558e-06
1.42253e-06
1.42092e-06
1.1398e-06
1.14721e-06
1.12405e-06
1.13522e-06
1.18878e-06
1.23977e-06
1.2932e-06
1.4149e-06
1.54272e-06
1.4547e-06
1.35587e-06
1.30424e-06
1.28788e-06
1.33421e-06
1.40651e-06
1.44583e-06
1.45036e-06
1.45016e-06
1.50985e-06
1.57337e-06
1.51368e-06
1.43899e-06
1.43661e-06
1.14872e-06
1.15086e-06
1.12496e-06
1.14255e-06
1.20403e-06
1.26458e-06
1.318e-06
1.44517e-06
1.56305e-06
1.4605e-06
1.36687e-06
1.30933e-06
1.29809e-06
1.35146e-06
1.42447e-06
1.46042e-06
1.46373e-06
1.46555e-06
1.53354e-06
1.59382e-06
1.53324e-06
1.45715e-06
1.45419e-06
1.10663e-06
1.15841e-06
1.15411e-06
1.12733e-06
1.15222e-06
1.22421e-06
1.2913e-06
1.34238e-06
1.47497e-06
1.57972e-06
1.46909e-06
1.37845e-06
1.31564e-06
1.31109e-06
1.37109e-06
1.44353e-06
1.47573e-06
1.47814e-06
1.48286e-06
1.56035e-06
1.61575e-06
1.55414e-06
1.47692e-06
1.47351e-06
1.11663e-06
1.16871e-06
1.15728e-06
1.13159e-06
1.16462e-06
1.24912e-06
1.31796e-06
1.36653e-06
1.50163e-06
1.59293e-06
1.48089e-06
1.38963e-06
1.32279e-06
1.32625e-06
1.39278e-06
1.46429e-06
1.49299e-06
1.49442e-06
1.5022e-06
1.59019e-06
1.64029e-06
1.57768e-06
1.49961e-06
1.49554e-06
1.06001e-06
1.12776e-06
1.17955e-06
1.16039e-06
1.13805e-06
1.18035e-06
1.27816e-06
1.34321e-06
1.39231e-06
1.52787e-06
1.60371e-06
1.49552e-06
1.3999e-06
1.33118e-06
1.34376e-06
1.41645e-06
1.48633e-06
1.51206e-06
1.51318e-06
1.52496e-06
1.62441e-06
1.66724e-06
1.6036e-06
1.52467e-06
1.52036e-06
1.067e-06
1.13987e-06
1.19163e-06
1.16378e-06
1.1468e-06
1.20009e-06
1.31014e-06
1.36551e-06
1.42127e-06
1.55656e-06
1.61355e-06
1.51197e-06
1.40858e-06
1.34069e-06
1.36362e-06
1.44274e-06
1.51088e-06
1.53399e-06
1.53474e-06
1.55115e-06
1.66348e-06
1.69785e-06
1.63311e-06
1.55328e-06
1.54814e-06
1.07506e-06
1.15268e-06
1.20426e-06
1.16761e-06
1.15781e-06
1.22431e-06
1.34336e-06
1.38431e-06
1.44977e-06
1.58723e-06
1.62379e-06
1.5295e-06
1.41638e-06
1.35223e-06
1.38627e-06
1.47153e-06
1.5378e-06
1.55942e-06
1.56042e-06
1.58219e-06
1.708e-06
1.73218e-06
1.66611e-06
1.58516e-06
1.57968e-06
1.08492e-06
1.16668e-06
1.21638e-06
1.17205e-06
1.17111e-06
1.25311e-06
1.37598e-06
1.40198e-06
1.47602e-06
1.61887e-06
1.63561e-06
1.547e-06
1.42379e-06
1.36655e-06
1.41275e-06
1.50405e-06
1.56827e-06
1.58866e-06
1.58977e-06
1.61785e-06
1.75763e-06
1.7711e-06
1.70313e-06
1.62076e-06
1.61444e-06
1.09714e-06
1.18146e-06
1.22796e-06
1.17699e-06
1.18693e-06
1.28634e-06
1.4052e-06
1.42106e-06
1.5035e-06
1.64972e-06
1.65058e-06
1.56447e-06
1.43233e-06
1.3847e-06
1.44337e-06
1.54012e-06
1.60247e-06
1.62267e-06
1.62396e-06
1.65893e-06
1.81197e-06
1.81349e-06
1.74464e-06
1.66069e-06
1.65378e-06
1.11216e-06
1.19812e-06
1.23804e-06
1.18258e-06
1.20568e-06
1.32304e-06
1.4292e-06
1.44339e-06
1.53424e-06
1.67934e-06
1.66926e-06
1.58145e-06
1.44298e-06
1.40757e-06
1.47922e-06
1.58055e-06
1.64062e-06
1.66081e-06
1.66224e-06
1.70557e-06
1.87119e-06
1.86116e-06
1.79037e-06
1.70477e-06
1.69704e-06
1.1302e-06
1.2148e-06
1.24497e-06
1.18904e-06
1.22805e-06
1.36135e-06
1.44862e-06
1.46867e-06
1.56696e-06
1.70543e-06
1.69175e-06
1.59844e-06
1.45675e-06
1.4352e-06
1.51959e-06
1.62469e-06
1.68303e-06
1.70354e-06
1.70501e-06
1.75758e-06
1.93341e-06
1.91279e-06
1.84132e-06
1.75395e-06
1.74537e-06
1.1507e-06
1.23129e-06
1.249e-06
1.19689e-06
1.25456e-06
1.39668e-06
1.46521e-06
1.49537e-06
1.60012e-06
1.72548e-06
1.7176e-06
1.61542e-06
1.47413e-06
1.46791e-06
1.5647e-06
1.6721e-06
1.72852e-06
1.74926e-06
1.75164e-06
1.81487e-06
1.99654e-06
1.96974e-06
1.89647e-06
1.80721e-06
1.79814e-06
1.16962e-06
1.24669e-06
1.25007e-06
1.20724e-06
1.28575e-06
1.4273e-06
1.48122e-06
1.52386e-06
1.63319e-06
1.74371e-06
1.74655e-06
1.63278e-06
1.49505e-06
1.50465e-06
1.61311e-06
1.72189e-06
1.77616e-06
1.79766e-06
1.80169e-06
1.87647e-06
2.05913e-06
2.03021e-06
1.95704e-06
1.86537e-06
1.85552e-06
1.18767e-06
1.25734e-06
1.24941e-06
1.22131e-06
1.32177e-06
1.45288e-06
1.50032e-06
1.55703e-06
1.66636e-06
1.76397e-06
1.77792e-06
1.65096e-06
1.51993e-06
1.5457e-06
1.6646e-06
1.7727e-06
1.82382e-06
1.84849e-06
1.85501e-06
1.94372e-06
2.1247e-06
2.0942e-06
2.02038e-06
1.92674e-06
1.91716e-06
1.20327e-06
1.26715e-06
1.24879e-06
1.24062e-06
1.35884e-06
1.47375e-06
1.52486e-06
1.59511e-06
1.7006e-06
1.7898e-06
1.81086e-06
1.67054e-06
1.54865e-06
1.59041e-06
1.71854e-06
1.82534e-06
1.87322e-06
1.90158e-06
1.91103e-06
2.01568e-06
2.19258e-06
2.16173e-06
2.08779e-06
1.99168e-06
1.98215e-06
1.21703e-06
1.27429e-06
1.25009e-06
1.2664e-06
1.39472e-06
1.49106e-06
1.55539e-06
1.63682e-06
1.73576e-06
1.8213e-06
1.84414e-06
1.69287e-06
1.58245e-06
1.6399e-06
1.77507e-06
1.8782e-06
1.92447e-06
1.95767e-06
1.97098e-06
2.09419e-06
2.26368e-06
2.23194e-06
2.1577e-06
2.05962e-06
2.0509e-06
1.23087e-06
1.28091e-06
1.25546e-06
1.29945e-06
1.4308e-06
1.50824e-06
1.59253e-06
1.68121e-06
1.77247e-06
1.85902e-06
1.87936e-06
1.71901e-06
1.62178e-06
1.69454e-06
1.83494e-06
1.93208e-06
1.97835e-06
2.01666e-06
2.03458e-06
2.17884e-06
2.33806e-06
2.30749e-06
2.23234e-06
2.13127e-06
2.12265e-06
1.24292e-06
1.28682e-06
1.26687e-06
1.33889e-06
1.46663e-06
1.52834e-06
1.63607e-06
1.72717e-06
1.81145e-06
1.90379e-06
1.91618e-06
1.7509e-06
1.66842e-06
1.75575e-06
1.8987e-06
1.98755e-06
2.03749e-06
2.08068e-06
2.10413e-06
2.27216e-06
2.41792e-06
2.38701e-06
2.312e-06
2.20798e-06
2.19913e-06
1.25256e-06
1.296e-06
1.28556e-06
1.37672e-06
1.49865e-06
1.55545e-06
1.68603e-06
1.77446e-06
1.85333e-06
1.95366e-06
1.95517e-06
1.78902e-06
1.72251e-06
1.82395e-06
1.96802e-06
2.04796e-06
2.10127e-06
2.14901e-06
2.17957e-06
2.37414e-06
2.50342e-06
2.47435e-06
2.39856e-06
2.29134e-06
2.28198e-06
1.26154e-06
1.30711e-06
1.3132e-06
1.41417e-06
1.52524e-06
1.59292e-06
1.74179e-06
1.82291e-06
1.9009e-06
2.00801e-06
1.99788e-06
1.83502e-06
1.78515e-06
1.89882e-06
2.04023e-06
2.11221e-06
2.1717e-06
2.22348e-06
2.26246e-06
2.48645e-06
2.59608e-06
2.56895e-06
2.49523e-06
2.38501e-06
2.37499e-06
1.26768e-06
1.32231e-06
1.35108e-06
1.45391e-06
1.54907e-06
1.64262e-06
1.80231e-06
1.87343e-06
1.95741e-06
2.06674e-06
2.04517e-06
1.8885e-06
1.85581e-06
1.98001e-06
2.11483e-06
2.18138e-06
2.24781e-06
2.30407e-06
2.35484e-06
2.61062e-06
2.69953e-06
2.67653e-06
2.60368e-06
2.49067e-06
2.47988e-06
1.2759e-06
1.34372e-06
1.39542e-06
1.49779e-06
1.57518e-06
1.70616e-06
1.86584e-06
1.92622e-06
2.01764e-06
2.12966e-06
2.09685e-06
1.94977e-06
1.93404e-06
2.06613e-06
2.1917e-06
2.25644e-06
2.33347e-06
2.39407e-06
2.45931e-06
2.7463e-06
2.81423e-06
2.79456e-06
2.72534e-06
2.60938e-06
2.59786e-06
1.2868e-06
1.37113e-06
1.43955e-06
1.54501e-06
1.60904e-06
1.78468e-06
1.93076e-06
1.98174e-06
2.07911e-06
2.19575e-06
2.15322e-06
2.01836e-06
2.02064e-06
2.15917e-06
2.27325e-06
2.34092e-06
2.42945e-06
2.49493e-06
2.57743e-06
2.8927e-06
2.9432e-06
2.92762e-06
2.85996e-06
2.74165e-06
2.73004e-06
1.30293e-06
1.40778e-06
1.48635e-06
1.59047e-06
1.65599e-06
1.87433e-06
1.99843e-06
2.03915e-06
2.14372e-06
2.26443e-06
2.21645e-06
2.09638e-06
2.11722e-06
2.25911e-06
2.3612e-06
2.43542e-06
2.53737e-06
2.60626e-06
2.71009e-06
3.04865e-06
3.0855e-06
3.07378e-06
3.01032e-06
2.8891e-06
2.87707e-06
1.32609e-06
1.45879e-06
1.53942e-06
1.63275e-06
1.71781e-06
1.97155e-06
2.07022e-06
2.10059e-06
2.21258e-06
2.33724e-06
2.28724e-06
2.18658e-06
2.22426e-06
2.36491e-06
2.45727e-06
2.54031e-06
2.65595e-06
2.72874e-06
2.85773e-06
3.21052e-06
3.24526e-06
3.23855e-06
3.17632e-06
3.05278e-06
3.041e-06
1.35852e-06
1.51354e-06
1.59727e-06
1.67546e-06
1.79662e-06
2.06825e-06
2.14696e-06
2.1688e-06
2.28668e-06
2.4166e-06
2.36935e-06
2.2883e-06
2.34267e-06
2.47629e-06
2.56092e-06
2.65782e-06
2.78827e-06
2.86433e-06
3.02265e-06
3.38254e-06
3.42153e-06
3.42068e-06
3.36262e-06
3.2352e-06
3.22273e-06
1.4013e-06
1.56995e-06
1.66048e-06
1.71965e-06
1.89229e-06
2.16165e-06
2.22493e-06
2.24137e-06
2.36863e-06
2.50392e-06
2.46276e-06
2.40412e-06
2.47234e-06
2.59496e-06
2.67492e-06
2.78729e-06
2.93208e-06
3.01389e-06
3.20778e-06
3.57169e-06
3.61825e-06
3.6247e-06
3.5686e-06
3.43831e-06
3.4255e-06
1.45455e-06
1.62938e-06
1.7256e-06
1.77171e-06
2.00661e-06
2.25722e-06
2.30457e-06
2.31617e-06
2.45585e-06
2.60046e-06
2.56961e-06
2.53519e-06
2.61446e-06
2.72121e-06
2.79991e-06
2.932e-06
3.09162e-06
3.17961e-06
3.41404e-06
3.77971e-06
3.83583e-06
3.85026e-06
3.79895e-06
3.66464e-06
3.65101e-06
1.5225e-06
1.69112e-06
1.78341e-06
1.83748e-06
2.13752e-06
2.35917e-06
2.38688e-06
2.39834e-06
2.55124e-06
2.706e-06
2.69291e-06
2.68092e-06
2.76728e-06
2.85613e-06
2.93781e-06
3.09141e-06
3.26596e-06
3.36277e-06
3.64318e-06
4.01161e-06
4.07687e-06
4.1011e-06
4.05379e-06
3.917e-06
3.90305e-06
1.5905e-06
1.75752e-06
1.83233e-06
1.92273e-06
2.27372e-06
2.46859e-06
2.47671e-06
2.49331e-06
2.66193e-06
2.82763e-06
2.83214e-06
2.8457e-06
2.92934e-06
3.00203e-06
3.09089e-06
3.26819e-06
3.45595e-06
3.56612e-06
3.89675e-06
4.26577e-06
4.34378e-06
4.37837e-06
4.33756e-06
4.19835e-06
4.18453e-06
1.65591e-06
1.8277e-06
1.882e-06
2.0316e-06
2.40758e-06
2.58645e-06
2.57803e-06
2.5962e-06
2.77999e-06
2.96126e-06
2.99226e-06
3.02557e-06
3.1008e-06
3.15883e-06
3.26032e-06
3.46422e-06
3.66713e-06
3.79254e-06
4.17746e-06
4.54951e-06
4.63869e-06
4.68544e-06
4.65134e-06
4.51191e-06
4.49949e-06
1.72557e-06
1.90382e-06
1.94238e-06
2.16543e-06
2.54385e-06
2.71407e-06
2.689e-06
2.71121e-06
2.9118e-06
3.11412e-06
3.17321e-06
3.22775e-06
3.28505e-06
3.33045e-06
3.44873e-06
3.67956e-06
3.89685e-06
4.04549e-06
4.48937e-06
4.86135e-06
4.9669e-06
5.02627e-06
5.00046e-06
4.86144e-06
4.85189e-06
1.8005e-06
1.98746e-06
2.01895e-06
2.32723e-06
2.68777e-06
2.84257e-06
2.80418e-06
2.84162e-06
3.06247e-06
3.28603e-06
3.37934e-06
3.44878e-06
3.48133e-06
3.51619e-06
3.65891e-06
3.91914e-06
4.14782e-06
4.32811e-06
4.83372e-06
5.20842e-06
5.3285e-06
5.4025e-06
5.38716e-06
5.25124e-06
5.24641e-06
1.87806e-06
2.0572e-06
2.11706e-06
2.51366e-06
2.84186e-06
2.96948e-06
2.92464e-06
2.9818e-06
3.22582e-06
3.48244e-06
3.61093e-06
3.69053e-06
3.69044e-06
3.72179e-06
3.89198e-06
4.17954e-06
4.42346e-06
4.64477e-06
5.21574e-06
5.59305e-06
5.73378e-06
5.82259e-06
5.81629e-06
5.68447e-06
5.68763e-06
1.96181e-06
2.11395e-06
2.24183e-06
2.70372e-06
3.01202e-06
3.10536e-06
3.05262e-06
3.13338e-06
3.41489e-06
3.70568e-06
3.87099e-06
3.94895e-06
3.91706e-06
3.94664e-06
4.15134e-06
4.46845e-06
4.72185e-06
4.99881e-06
5.64009e-06
6.01932e-06
6.1785e-06
6.28565e-06
6.29427e-06
6.16811e-06
6.18118e-06
2.04867e-06
2.16813e-06
2.39847e-06
2.90045e-06
3.1948e-06
3.25787e-06
3.18792e-06
3.30036e-06
3.62109e-06
3.95743e-06
4.15911e-06
4.22318e-06
4.15923e-06
4.19604e-06
4.43813e-06
4.78151e-06
5.04384e-06
5.39168e-06
6.10568e-06
6.49438e-06
6.67777e-06
6.80286e-06
6.82233e-06
6.7066e-06
6.7345e-06
2.14106e-06
2.23045e-06
2.587e-06
3.10654e-06
3.38735e-06
3.42282e-06
3.34002e-06
3.48854e-06
3.85773e-06
4.24373e-06
4.4796e-06
4.51697e-06
4.42308e-06
4.47235e-06
4.75567e-06
5.12335e-06
5.39689e-06
5.8294e-06
6.6176e-06
7.01653e-06
7.22613e-06
7.37359e-06
7.41313e-06
7.30601e-06
7.35171e-06
2.24536e-06
2.3162e-06
2.81239e-06
3.32474e-06
3.59848e-06
3.60657e-06
3.51402e-06
3.6984e-06
4.12419e-06
4.56628e-06
4.83223e-06
4.82619e-06
4.70699e-06
4.77833e-06
5.10441e-06
5.50007e-06
5.78757e-06
6.31597e-06
7.17928e-06
7.5969e-06
7.83203e-06
8.00608e-06
8.06279e-06
7.972e-06
8.04059e-06
2.32069e-06
2.42752e-06
3.04898e-06
3.55105e-06
3.8147e-06
3.80195e-06
3.69677e-06
3.92445e-06
4.41789e-06
4.91639e-06
5.20406e-06
5.14548e-06
5.00585e-06
5.10453e-06
5.47654e-06
5.89612e-06
6.20831e-06
6.83976e-06
7.77636e-06
8.21476e-06
8.48722e-06
8.68734e-06
8.76792e-06
8.69988e-06
8.8006e-06
2.39335e-06
2.60714e-06
3.32358e-06
3.80898e-06
4.05311e-06
4.01817e-06
3.92318e-06
4.21213e-06
4.79362e-06
5.36561e-06
5.66096e-06
5.53926e-06
5.38172e-06
5.51993e-06
5.93836e-06
6.38188e-06
6.72488e-06
7.4758e-06
8.49004e-06
8.95583e-06
9.26305e-06
9.4936e-06
9.60041e-06
9.55277e-06
9.68757e-06
2.36126e-06
2.71469e-06
3.46765e-06
3.93911e-06
4.11258e-06
4.08876e-06
4.03203e-06
4.35731e-06
4.97223e-06
5.53342e-06
5.8159e-06
5.66135e-06
5.52101e-06
5.69556e-06
6.13197e-06
6.57862e-06
6.99185e-06
7.84163e-06
8.86001e-06
9.35312e-06
9.70076e-06
9.9717e-06
1.01142e-05
1.01137e-05
1.03118e-05
2.75614e-06
3.4872e-06
4.28554e-06
4.74225e-06
4.98054e-06
4.79869e-06
4.76703e-06
5.28181e-06
6.21771e-06
7.04864e-06
7.27631e-06
6.94713e-06
6.70161e-06
6.92838e-06
7.47791e-06
7.99835e-06
8.45047e-06
9.46444e-06
1.06651e-05
1.12024e-05
1.15751e-05
1.18565e-05
1.2014e-05
1.20471e-05
1.22876e-05
1.9035e-06
2.06881e-06
2.20256e-06
2.314e-06
2.43588e-06
2.57165e-06
2.77637e-06
3.05272e-06
3.34553e-06
3.57025e-06
3.71025e-06
3.87165e-06
4.15672e-06
4.57061e-06
5.06312e-06
5.59172e-06
6.17437e-06
6.88362e-06
7.63843e-06
8.34018e-06
9.08117e-06
9.80877e-06
1.03788e-05
1.06628e-05
1.08631e-05
0.000144969
3.04413e-06
5.47667e-07
7.87826e-07
7.64709e-07
7.69142e-07
7.71143e-07
7.73357e-07
7.75609e-07
7.77944e-07
7.80397e-07
7.83008e-07
7.85816e-07
7.88858e-07
7.92175e-07
7.95818e-07
7.99851e-07
8.04353e-07
8.09412e-07
8.15114e-07
8.21533e-07
8.28721e-07
8.3672e-07
8.45552e-07
8.55234e-07
8.65754e-07
8.77072e-07
8.89114e-07
9.0178e-07
9.14911e-07
9.28232e-07
9.41349e-07
9.53864e-07
9.6549e-07
9.76107e-07
9.85698e-07
9.94203e-07
1.00143e-06
1.00718e-06
1.01146e-06
1.01402e-06
1.0145e-06
1.01238e-06
1.00735e-06
9.99287e-07
9.88318e-07
9.74937e-07
9.60085e-07
9.4471e-07
9.29624e-07
9.15449e-07
9.02584e-07
8.91102e-07
8.80845e-07
8.71584e-07
8.63295e-07
8.56129e-07
8.503e-07
8.46137e-07
8.44221e-07
8.4536e-07
8.50697e-07
8.62187e-07
8.8322e-07
9.19608e-07
9.80342e-07
1.07689e-06
1.22269e-06
1.43684e-06
1.74822e-06
2.19279e-06
2.79814e-06
3.56288e-06
4.45785e-06
5.46602e-06
6.64841e-06
8.18595e-06
1.02601e-05
1.27465e-05
1.50147e-05
1.66235e-05
1.7695e-05
1.82962e-05
1.84668e-05
1.82399e-05
1.77032e-05
1.70592e-05
1.65118e-05
1.60833e-05
1.56693e-05
1.52428e-05
1.48013e-05
1.43351e-05
1.38822e-05
1.34239e-05
1.29391e-05
1.2424e-05
1.1856e-05
1.1271e-05
2.66188e-06
5.85202e-06
6.14208e-07
7.66993e-07
7.59924e-07
7.61589e-07
7.62793e-07
7.63959e-07
7.65106e-07
7.66238e-07
7.67364e-07
7.68498e-07
7.6966e-07
7.70864e-07
7.72114e-07
7.7341e-07
7.74754e-07
7.7614e-07
7.77567e-07
7.79041e-07
7.80585e-07
7.82235e-07
7.84039e-07
7.86045e-07
7.88315e-07
7.90924e-07
7.93976e-07
7.97591e-07
8.01909e-07
8.07097e-07
8.13365e-07
8.20989e-07
8.30296e-07
8.41602e-07
8.55157e-07
8.711e-07
8.89458e-07
9.10208e-07
9.33373e-07
9.59153e-07
9.87916e-07
1.01987e-06
1.05442e-06
1.08972e-06
1.12245e-06
1.14874e-06
1.16581e-06
1.17212e-06
1.16713e-06
1.15105e-06
1.12542e-06
1.09343e-06
1.0605e-06
1.0314e-06
1.00711e-06
9.85032e-07
9.63349e-07
9.41585e-07
9.18258e-07
8.92611e-07
8.66646e-07
8.41361e-07
8.16777e-07
7.94619e-07
7.78017e-07
7.78132e-07
8.18977e-07
9.04001e-07
9.78767e-07
9.63837e-07
8.48476e-07
7.40215e-07
7.3948e-07
7.69356e-07
8.01452e-07
1.2527e-06
3.14712e-06
7.38643e-06
1.45644e-05
2.2072e-05
2.70288e-05
3.05411e-05
3.32384e-05
3.49449e-05
3.55222e-05
3.50765e-05
3.37017e-05
3.2107e-05
3.09704e-05
2.95159e-05
2.78562e-05
2.6017e-05
2.40497e-05
2.2051e-05
1.96385e-05
1.73004e-05
1.54115e-05
1.3964e-05
1.29267e-05
4.03098e-06
5.34384e-06
6.67758e-07
7.60861e-07
7.58983e-07
7.60239e-07
7.61308e-07
7.62341e-07
7.63369e-07
7.644e-07
7.65443e-07
7.66512e-07
7.67628e-07
7.68817e-07
7.70099e-07
7.71489e-07
7.73007e-07
7.74678e-07
7.76522e-07
7.78566e-07
7.80834e-07
7.83355e-07
7.86157e-07
7.89266e-07
7.92704e-07
7.96493e-07
8.00666e-07
8.05263e-07
8.10329e-07
8.15919e-07
8.22097e-07
8.28924e-07
8.36465e-07
8.44787e-07
8.53993e-07
8.64238e-07
8.75719e-07
8.88614e-07
9.02984e-07
9.1875e-07
9.35945e-07
9.55234e-07
9.77599e-07
1.00371e-06
1.03272e-06
1.0618e-06
1.08739e-06
1.10619e-06
1.11651e-06
1.11712e-06
1.10707e-06
1.08564e-06
1.05522e-06
1.02332e-06
9.96579e-07
9.74889e-07
9.55046e-07
9.36867e-07
9.19725e-07
9.01025e-07
8.81316e-07
8.62902e-07
8.45563e-07
8.3055e-07
8.1927e-07
8.13973e-07
8.31397e-07
9.02856e-07
1.0244e-06
1.13785e-06
1.1806e-06
1.22621e-06
1.39001e-06
1.67257e-06
1.97138e-06
2.36324e-06
3.38074e-06
5.6123e-06
9.55908e-06
1.50183e-05
1.95652e-05
2.27349e-05
2.51671e-05
2.70147e-05
2.79722e-05
2.81265e-05
2.74396e-05
2.63354e-05
2.55943e-05
2.47002e-05
2.34518e-05
2.19993e-05
2.04217e-05
1.88238e-05
1.67248e-05
1.46965e-05
1.30373e-05
1.17522e-05
1.08458e-05
4.09856e-06
5.04876e-06
6.98471e-07
7.56261e-07
7.57704e-07
7.58582e-07
7.59447e-07
7.60261e-07
7.61067e-07
7.61872e-07
7.62681e-07
7.63504e-07
7.64354e-07
7.65253e-07
7.66223e-07
7.67275e-07
7.68421e-07
7.69677e-07
7.71059e-07
7.72586e-07
7.74278e-07
7.76163e-07
7.78276e-07
7.80655e-07
7.8334e-07
7.86363e-07
7.89763e-07
7.93594e-07
7.97913e-07
8.02789e-07
8.083e-07
8.14538e-07
8.21609e-07
8.2963e-07
8.38731e-07
8.49049e-07
8.60745e-07
8.74003e-07
8.89022e-07
9.05857e-07
9.24202e-07
9.43994e-07
9.65921e-07
9.90931e-07
1.0196e-06
1.05037e-06
1.07989e-06
1.10426e-06
1.12044e-06
1.12711e-06
1.12361e-06
1.10902e-06
1.08304e-06
1.05039e-06
1.01983e-06
9.95017e-07
9.73145e-07
9.52634e-07
9.33624e-07
9.1405e-07
8.92782e-07
8.72119e-07
8.52415e-07
8.34622e-07
8.20509e-07
8.12302e-07
8.21362e-07
8.74366e-07
9.74341e-07
1.08405e-06
1.11957e-06
1.12739e-06
1.21572e-06
1.42916e-06
1.66566e-06
1.94768e-06
2.7043e-06
4.67026e-06
8.30347e-06
1.36741e-05
1.84583e-05
2.18496e-05
2.43645e-05
2.62922e-05
2.74134e-05
2.78057e-05
2.73594e-05
2.63061e-05
2.55381e-05
2.4549e-05
2.32854e-05
2.17838e-05
2.01105e-05
1.84057e-05
1.60748e-05
1.39711e-05
1.22992e-05
1.10365e-05
1.01702e-05
3.54861e-06
3.99372e-06
7.25869e-07
7.53894e-07
7.57082e-07
7.57873e-07
7.58637e-07
7.59349e-07
7.60052e-07
7.60756e-07
7.61467e-07
7.62193e-07
7.62946e-07
7.63747e-07
7.64619e-07
7.65577e-07
7.66631e-07
7.678e-07
7.691e-07
7.70549e-07
7.72167e-07
7.73979e-07
7.76014e-07
7.78303e-07
7.80886e-07
7.83791e-07
7.87047e-07
7.90701e-07
7.94805e-07
7.99417e-07
8.04608e-07
8.10459e-07
8.1706e-07
8.24512e-07
8.32927e-07
8.42432e-07
8.5317e-07
8.65306e-07
8.79038e-07
8.946e-07
9.11997e-07
9.30819e-07
9.51415e-07
9.74571e-07
1.00134e-06
1.03139e-06
1.06195e-06
1.0897e-06
1.1107e-06
1.12276e-06
1.12488e-06
1.11619e-06
1.09575e-06
1.06556e-06
1.03389e-06
1.00718e-06
9.84547e-07
9.63407e-07
9.4385e-07
9.24636e-07
9.0371e-07
8.82587e-07
8.62523e-07
8.44025e-07
8.28302e-07
8.17069e-07
8.18545e-07
8.55254e-07
9.45291e-07
1.0598e-06
1.11383e-06
1.11958e-06
1.17833e-06
1.36898e-06
1.60559e-06
1.83971e-06
2.34276e-06
3.78146e-06
6.54111e-06
1.10784e-05