/*--------------------------------*- C++ -*----------------------------------*\
  =========                 |
  \\      /  F ield         | OpenFOAM: The Open Source CFD Toolbox
   \\    /   O peration     | Website:  https://openfoam.org
    \\  /    A nd           | Version:  9
     \\/     M anipulation  |
\*---------------------------------------------------------------------------*/
FoamFile
{
    format      ascii;
    class       volScalarField;
    location    "2250";
    object      omega;
}
// * * * * * * * * * * * * * * * * * * * * * * * * * * * * * * * * * * * * * //

dimensions      [0 0 -1 0 0 0 0];

internalField   nonuniform List<scalar> 
13354
(
91.6847
89.8808
88.0023
86.1199
85.673
87.5154
90.4512
93.2966
96.4949
102.259
113.928
133.447
154.949
91.9588
90.5064
89.6356
87.9372
86.9376
88.2052
91.1135
94.5617
98.8627
106.005
119.469
139.637
151.778
91.0862
88.8261
88.4594
87.6001
86.8809
88.1683
90.6133
93.1666
98.5669
108.988
123.514
137.57
137.864
89.1491
86.2778
86.0114
86.0614
85.9862
87.3389
88.9957
90.2323
95.2603
105.869
120.39
127.833
121.374
86.1433
83.3961
82.5608
83.0774
83.7209
85.3062
86.3604
87.0327
90.5815
98.5399
109.718
115.201
108.014
81.8062
80.3364
78.8734
79.3418
80.2411
81.9727
82.9154
83.3437
85.3509
90.168
97.4224
102.268
98.26
77.3466
77.3332
75.424
75.4158
76.0158
77.6384
78.7662
79.0807
79.9629
82.3279
86.7413
90.7232
90.4119
73.4406
74.5479
72.1579
71.5054
71.7024
73.0198
74.2106
74.4305
74.4981
75.3187
78.2994
81.7716
82.9871
69.9717
71.6072
68.8659
67.7472
67.7436
68.6649
69.5211
69.6246
68.9769
69.3192
71.6661
74.7203
76.2681
66.8543
68.2359
65.5495
64.1431
64.0948
64.7013
65.0418
64.8413
64.2501
64.2989
66.2255
68.9956
70.8011
63.9501
64.7231
62.3485
60.7151
60.6808
61.2103
61.1239
60.8845
60.2255
60.0142
61.5877
64.074
66.1157
61.1395
61.5322
59.3472
57.8701
57.587
58.0178
57.8775
57.5025
56.7946
56.3185
57.5292
59.7617
61.9814
58.4201
58.5546
56.6963
55.5941
54.9199
55.2563
54.9438
54.5473
53.8679
53.0943
53.9261
55.9725
58.3115
55.8333
55.7501
54.3269
53.3617
52.6641
52.7356
52.2371
51.871
51.2847
50.2805
50.7217
52.5833
54.9563
53.3924
53.1667
52.0205
51.1148
50.4619
50.3232
49.7206
49.3622
48.9361
47.8323
47.9692
49.531
51.856
51.0829
50.7669
49.7946
48.9039
48.2647
48.0013
47.3482
46.9615
46.7165
45.6592
45.5859
46.7936
48.9731
48.8884
48.5271
47.6688
46.7732
46.1255
45.7962
45.1004
44.6566
44.6022
43.7009
43.4279
44.3188
46.2497
46.8089
46.4192
45.642
44.7289
44.0772
43.709
42.9783
42.4788
42.6145
41.8936
41.5015
42.0567
43.6694
44.8057
44.4083
43.7098
42.7819
42.1384
41.741
40.9973
40.4865
40.7302
40.1697
39.707
39.9933
41.3393
42.8799
42.4782
41.8479
40.9234
40.3028
39.8929
39.1765
38.6792
38.9351
38.4748
38.0332
38.2059
39.2011
41.0333
40.634
40.059
39.1494
38.5598
38.1687
37.5163
37.0304
37.2212
36.8439
36.4623
36.5117
37.244
39.2616
38.8718
38.3452
37.4734
36.9278
36.5781
35.9993
35.5166
35.6241
35.307
34.9485
34.8815
35.3903
37.5703
37.2032
36.7093
35.8996
35.4136
35.108
34.5945
34.1194
34.1487
33.8467
33.4559
33.3531
33.7283
35.9534
35.6158
35.137
34.4096
33.9955
33.7292
33.2781
32.8219
32.7833
32.4704
32.0773
31.9513
32.1611
34.4145
34.1078
33.631
32.9966
32.6618
32.4285
32.0402
31.6098
31.5173
31.2207
30.8174
30.6033
30.7124
32.95
32.6675
32.1891
31.6403
31.3915
31.1944
30.8646
30.4602
30.3494
30.0764
29.6272
29.3834
29.3931
31.5543
31.2915
30.8108
30.3313
30.1747
30.0158
29.7305
29.3714
29.2524
28.9968
28.5506
28.2356
28.1663
30.2158
29.9665
29.486
29.0683
28.9962
28.87
28.6343
28.315
28.192
27.9741
27.503
27.1782
27.0334
28.9344
28.6847
28.2116
27.8515
27.8383
27.7532
27.5588
27.2753
27.1544
26.9569
26.5172
26.1601
25.9874
27.694
27.4395
26.9851
26.6748
26.7047
26.6527
26.5008
26.2466
26.1169
25.9651
25.5323
25.1911
24.9833
26.4982
26.2317
25.7986
25.5399
25.5914
25.5664
25.4548
25.2233
25.0987
24.9644
24.5669
24.2227
24.0114
25.3397
25.0545
24.6511
24.4402
24.5084
24.4959
24.4191
24.2145
24.0819
23.9811
23.6028
23.2763
23.0678
24.2192
23.916
23.543
23.3789
23.4512
23.4454
23.3959
23.2169
23.0913
23.0081
22.6612
22.3463
22.1498
23.1354
22.8112
22.4725
22.3503
22.424
22.4206
22.39
22.2397
22.1208
22.0624
21.7368
21.4382
21.2494
22.0849
21.7448
21.4405
21.3593
21.4272
21.4286
21.4105
21.2799
21.1768
21.1373
20.8366
20.5494
20.3722
20.9541
21.0698
20.7174
20.4479
20.401
20.4622
20.4686
20.4604
20.3455
20.2548
20.2411
19.9623
19.6877
19.5185
20.4409
20.3767
20.3749
20.3164
20.2165
20.0792
19.7917
19.7323
20.021
20.0846
19.7282
19.4915
19.4763
19.5276
19.5417
19.5418
19.4382
19.3606
19.37
19.1164
18.8522
18.6918
19.4595
19.3941
19.3922
19.3255
19.2394
19.0973
18.826
18.812
19.1273
19.1332
18.7811
18.576
18.5851
18.6275
18.6496
18.6571
18.5636
18.4948
18.5256
18.2972
18.0457
17.8921
18.514
18.4474
18.4486
18.3732
18.3036
18.157
17.9029
17.9367
18.2669
18.2135
17.8731
17.6979
17.7265
17.7597
17.7918
17.8053
17.721
17.6618
17.7086
17.5042
17.2661
17.1203
17.6048
17.538
17.5433
17.4596
17.4051
17.2526
17.0198
17.1043
17.4372
17.3276
17.0052
16.859
16.8998
16.9267
16.9676
16.9862
16.9104
16.8604
16.9215
16.7362
16.5118
16.3758
16.7317
16.666
16.6738
16.5826
16.5455
16.3882
16.1804
16.3161
16.6364
16.4779
16.176
16.0583
16.1055
16.1276
16.1778
16.2
16.132
16.0912
16.1636
15.9944
15.7817
15.6567
15.8944
15.8316
15.8396
15.7433
15.7211
15.5587
15.3804
15.5666
15.8607
15.6637
15.3839
15.2938
15.3416
15.3622
15.4204
15.4456
15.3846
15.353
15.4359
15.2796
15.0764
14.9623
15.0517
15.0925
15.0339
15.0387
14.9406
14.9326
14.7671
14.6243
14.8567
15.1118
14.8884
14.6296
14.5662
14.6093
14.6304
14.6956
14.7217
14.6668
14.645
14.7375
14.5926
14.3969
14.2925
14.2915
14.3253
14.2725
14.271
14.175
14.1773
14.0107
13.9077
14.1789
14.387
14.1485
13.9106
13.8713
13.9072
13.9318
14.002
14.0284
13.9791
13.9663
14.0679
13.9327
13.7441
13.6482
13.5652
13.5924
13.5462
13.5348
13.4455
13.4556
13.2917
13.2328
13.5317
13.6894
13.4448
13.2268
13.2077
13.2347
13.2646
13.3388
13.3645
13.3201
13.3167
13.4268
13.3
13.1175
13.0292
12.8721
12.893
12.8541
12.8308
12.7522
12.7661
12.6091
12.5964
12.9101
13.0191
12.7742
12.5775
12.5738
12.5923
12.6288
12.7051
12.7293
12.6892
12.6954
12.8137
12.694
12.5171
12.4358
12.2111
12.2267
12.1945
12.1575
12.0935
12.1081
11.9636
11.9974
12.3117
12.3779
12.135
11.9608
11.967
11.9789
12.0231
12.1
12.1221
12.0863
12.1017
12.2274
12.1136
11.9424
11.8673
11.5813
11.5926
11.5656
11.516
11.4687
11.4811
11.3548
11.4327
11.7351
11.767
11.5265
11.3768
11.3866
11.394
11.4457
11.5223
11.5426
11.5104
11.5351
11.6677
11.5587
11.392
11.323
10.9816
10.9901
10.9661
10.9049
10.8756
10.8843
10.7822
10.8981
11.1793
11.1849
10.9463
10.8227
10.8312
10.8372
10.8962
10.9712
10.9892
10.9607
10.995
11.1339
11.0281
10.8658
10.802
10.411
10.4185
10.3946
10.3251
10.3133
10.3182
10.2452
10.3908
10.6462
10.6318
10.3952
10.2965
10.2997
10.3073
10.3731
10.4461
10.4616
10.4365
10.48
10.6235
10.5209
10.3626
10.3038
9.86881
9.87658
9.84927
9.77528
9.7791
9.782
9.74138
9.90558
10.1357
10.1042
9.87231
9.7962
9.79203
9.8039
9.87535
9.94523
9.95893
9.93744
9.98952
10.1346
10.0359
9.88187
9.82732
9.35409
9.36294
9.32948
9.25556
9.27259
9.27673
9.26959
9.44172
9.65005
9.60058
9.37719
9.31911
9.30773
9.32612
9.40191
9.46843
9.48011
9.46188
9.52253
9.66779
9.57215
9.42271
9.37196
8.86608
8.87609
8.83388
8.76404
8.79139
8.80118
8.82506
8.99633
9.18871
9.11914
8.90977
8.86398
8.84633
8.87245
8.95153
9.01459
9.02469
9.00974
9.07845
9.22098
9.12913
8.98457
8.93728
8.40403
8.41436
8.36228
8.30069
8.336
8.35622
8.40572
8.57038
8.75041
8.65866
8.4684
8.42909
8.40785
8.44221
8.52339
8.58254
8.59112
8.57966
8.65654
8.79364
8.70542
8.56628
8.52189
7.96707
7.97593
7.91393
7.86301
7.90492
7.93965
8.00707
8.16465
8.33201
8.21933
8.0521
8.01327
7.99135
8.03422
8.11669
8.1718
8.17901
8.17091
8.25535
8.38559
8.30093
8.16775
8.12571
7.55422
7.55931
7.48881
7.45062
7.49917
7.55075
7.62705
7.77937
7.93139
7.80115
7.65849
7.61624
7.59664
7.64729
7.72988
7.78108
7.78745
7.78285
7.87474
7.99633
7.91526
7.78727
7.74756
7.16433
7.16286
7.08637
7.0614
7.11798
7.1862
7.26355
7.4136
7.54873
7.4053
7.28532
7.23711
7.22286
7.28076
7.36257
7.40976
7.41523
7.41393
7.51341
7.62625
7.54746
7.42484
7.38698
6.79616
6.78544
6.70642
6.69468
6.76169
6.84317
6.91631
7.06708
7.18241
7.03171
6.93053
6.87607
6.86906
6.933
7.01342
7.05719
7.06189
7.0639
7.17051
7.27265
7.19699
7.07946
7.04351
6.36356
6.44747
6.42593
6.34814
6.34924
6.42925
6.51808
6.58449
6.7352
6.82857
6.68014
6.59195
6.53282
6.53476
6.60359
6.68169
6.72202
6.72596
6.73155
6.8453
6.93523
6.86277
6.75055
6.71606
6.0365
6.11692
6.08376
6.01088
6.02468
6.11919
6.20771
6.26835
6.41357
6.48676
6.34971
6.2686
6.20707
6.21836
6.29116
6.36682
6.40394
6.40698
6.41622
6.53678
6.61432
6.54447
6.43764
6.40446
5.63108
5.72799
5.803
5.75839
5.69371
5.72059
5.82934
5.91047
5.97041
6.10669
6.15896
6.03866
5.95934
5.89874
5.91943
5.99493
6.06739
6.10153
6.10403
6.11737
6.24445
6.30851
6.24126
6.13945
6.10773
5.33587
5.43594
5.50611
5.44968
5.39573
5.43676
5.55681
5.62379
5.69046
5.81668
5.84672
5.74529
5.66378
5.60692
5.63663
5.71422
5.78325
5.81443
5.81618
5.83377
5.96719
6.01748
5.95265
5.85599
5.82541
5.05741
5.1589
5.22401
5.15743
5.11622
5.17281
5.29881
5.34807
5.4232
5.54227
5.5511
5.46738
5.38182
5.33151
5.36925
5.44766
5.51294
5.54175
5.54313
5.56529
5.70419
5.74067
5.67814
5.58617
5.55721
4.79537
4.89646
4.95491
4.88148
4.85441
4.92758
5.05227
5.08512
5.16578
5.2815
5.27264
5.20326
5.11315
5.07132
5.11643
5.19506
5.25636
5.28275
5.28354
5.31059
5.45391
5.47755
5.41698
5.32971
5.3019
4.54919
4.64733
4.69865
4.62159
4.61006
4.69974
4.81421
4.83782
4.92209
5.03198
5.01123
4.95134
4.85806
4.82596
4.8771
4.95502
5.01257
5.03721
5.03755
5.06958
5.2154
5.22662
5.16894
5.08612
5.05972
4.31819
4.41263
4.45442
4.37745
4.38244
4.48639
4.58263
4.60661
4.69302
4.79307
4.76626
4.71052
4.6161
4.5945
4.65094
4.72747
4.78116
4.80393
4.80389
4.84141
4.98785
4.98854
4.933
4.85453
4.82914
4.10181
4.1903
4.22075
4.14881
4.17129
4.28482
4.35888
4.38974
4.47629
4.5624
4.53579
4.48025
4.38743
4.37619
4.43667
4.51136
4.56178
4.58275
4.58257
4.62539
4.76922
4.76167
4.70918
4.63483
4.61052
3.899
3.98004
3.99833
3.93526
3.97535
4.08942
4.1442
4.1843
4.26954
4.33794
4.31852
4.26008
4.17157
4.17054
4.23426
4.30643
4.35341
4.37239
4.37271
4.421
4.55838
4.54657
4.49625
4.42569
4.40249
3.70533
3.78142
3.7869
3.73652
3.79345
3.89907
3.94025
3.98983
4.07138
4.12236
4.11281
4.05015
3.96827
3.97648
4.04248
4.11193
4.15531
4.17262
4.17392
4.22721
4.35478
4.34171
4.29458
4.22746
4.20512
3.52207
3.59036
3.58678
3.55213
3.62376
3.71336
3.74897
3.80736
3.8813
3.91834
3.91765
3.85037
3.7771
3.79383
3.86125
3.92722
3.96612
3.98297
3.98577
4.04454
4.161
4.14703
4.10244
4.03863
4.0175
3.34773
3.41038
3.39832
3.38147
3.46134
3.5326
3.57087
3.63568
3.69906
3.72704
3.73188
3.66095
3.59735
3.6214
3.68957
3.75221
3.78663
3.8031
3.80734
3.87166
3.97651
3.96228
3.92028
3.85952
3.83924
3.18222
3.23866
3.22165
3.22367
3.30392
3.35767
3.4049
3.47286
3.5245
3.54758
3.55423
3.48187
3.42873
3.45914
3.52691
3.58522
3.61615
3.63255
3.63859
3.70865
3.80102
3.78637
3.74672
3.68904
3.66988
3.0264
3.0758
3.05682
3.07749
3.15212
3.19081
3.25014
3.31732
3.35735
3.37926
3.38522
3.31302
3.27018
3.30582
3.37253
3.42575
3.454
3.47038
3.4783
3.55405
3.63368
3.61961
3.582
3.5271
3.50872
2.8778
2.92038
2.9038
2.94078
3.00574
3.03359
3.10517
3.16803
3.19799
3.22148
3.22389
3.15423
3.1214
3.16107
3.22562
3.27292
3.30017
3.31648
3.32657
3.40788
3.47462
3.46036
3.42509
3.373
3.35546
2.73504
2.77434
2.76219
2.80731
2.86251
2.8875
2.96889
3.02427
3.04625
3.07234
3.07016
3.00487
2.9812
3.02392
3.08595
3.12742
3.15336
3.16954
3.18225
3.26898
3.32295
3.30929
3.27586
3.2266
3.20999
2.59879
2.63547
2.6318
2.67803
2.72212
2.75334
2.84028
2.88596
2.90303
2.93077
2.92395
2.86455
2.84905
2.89344
2.95153
2.98797
3.01347
3.02962
3.04528
3.13712
3.17852
3.16537
3.13459
3.08811
3.07247
2.46684
2.5046
2.51208
2.55424
2.58619
2.63037
2.71779
2.75308
2.76896
2.79611
2.78527
2.73223
2.72381
2.76889
2.82193
2.85452
2.87963
2.89607
2.9156
3.01189
3.04203
3.02989
3.00103
2.95727
2.94252
2.34165
2.38212
2.39956
2.43652
2.45737
2.51796
2.60005
2.62565
2.64124
2.66763
2.65324
2.60711
2.60468
2.64944
2.69711
2.72716
2.75282
2.76959
2.7933
2.89229
2.9127
2.90129
2.87494
2.83364
2.81968
2.22307
2.26721
2.29018
2.32398
2.33756
2.41475
2.48582
2.5036
2.51873
2.54483
2.52763
2.48839
2.49148
2.53567
2.5778
2.60657
2.63269
2.65
2.67806
2.77757
2.79077
2.78024
2.75563
2.71678
2.70359
2.11194
2.16078
2.18531
2.21403
2.22819
2.31802
2.3757
2.38641
2.40176
2.42699
2.40865
2.37615
2.38426
2.42714
2.46429
2.49262
2.51934
2.53662
2.56928
2.66682
2.67497
2.66532
2.64298
2.60631
2.59375
2.00846
2.06433
2.08623
2.10651
2.12858
2.22568
2.26995
2.27461
2.2904
2.31441
2.29599
2.27073
2.28281
2.32343
2.35678
2.38471
2.41177
2.42906
2.46642
2.55909
2.56559
2.55704
2.53621
2.50183
2.48994
1.91293
1.97214
1.99196
2.00331
2.03817
2.13462
2.16873
2.16871
2.18455
2.20745
2.19018
2.17127
2.18687
2.2242
2.25462
2.28298
2.31034
2.32735
2.36927
2.45529
2.46166
2.45427
2.43544
2.40303
2.39168
1.82494
1.88316
1.90241
1.90503
1.95569
2.04437
2.07072
2.06781
2.0845
2.10616
2.09065
2.07781
2.09596
2.12967
2.15795
2.18655
2.21395
2.23122
2.27785
2.35674
2.36345
2.35729
2.33986
2.30954
2.29885
1.7437
1.79812
1.81619
1.81359
1.88023
1.95681
1.97606
1.97105
1.98915
2.01042
1.99718
1.99003
2.00988
2.03962
2.06638
2.09558
2.12293
2.14044
2.19143
2.26321
2.27034
2.26525
2.24953
2.22107
2.21095
1.66992
1.71655
1.73038
1.72988
1.80992
1.87296
1.88503
1.87951
1.8988
1.91952
1.90975
1.90704
1.92779
1.95388
1.97967
2.00932
2.03657
2.05468
2.10964
2.17496
2.18226
2.17828
2.16387
2.13733
2.12785
1.59794
1.63904
1.64508
1.65437
1.74117
1.79289
1.79865
1.79391
1.81445
1.8345
1.82742
1.82918
1.84907
1.87242
1.89775
1.92776
1.95456
1.97377
2.03211
2.09113
2.09889
2.09584
2.08286
2.05805
2.04914
1.52696
1.56488
1.56324
1.58672
1.6723
1.71644
1.71744
1.71268
1.73398
1.75381
1.75037
1.75503
1.77357
1.79484
1.82019
1.85061
1.87722
1.89753
1.95857
2.01206
2.01993
2.01783
2.00607
1.98301
1.97468
1.45908
1.49438
1.48715
1.52572
1.60473
1.64354
1.64054
1.63618
1.6581
1.67818
1.67787
1.68533
1.70163
1.72134
1.74685
1.77743
1.80369
1.82578
1.88893
1.93698
1.94537
1.94408
1.93344
1.91194
1.90411
1.39435
1.4276
1.41737
1.47058
1.53953
1.57248
1.56675
1.56463
1.58709
1.60685
1.60987
1.61913
1.63294
1.6514
1.6776
1.70834
1.73385
1.75824
1.82271
1.86609
1.87465
1.87417
1.86467
1.84473
1.83736
1.33191
1.35959
1.35418
1.41928
1.47688
1.50266
1.49608
1.49658
1.51939
1.53997
1.54579
1.55619
1.56724
1.58534
1.61212
1.64258
1.66776
1.69481
1.75993
1.79904
1.80815
1.80835
1.79965
1.78105
1.77414
1.27251
1.29124
1.29754
1.36774
1.4174
1.43598
1.42879
1.43186
1.45628
1.47712
1.48545
1.49587
1.50497
1.52272
1.55029
1.58051
1.60474
1.63511
1.70052
1.73568
1.74502
1.74598
1.73835
1.721
1.71442
1.2153
1.22507
1.24702
1.31678
1.36039
1.37332
1.36455
1.37067
1.39608
1.41792
1.42829
1.43782
1.44554
1.46353
1.49172
1.52135
1.54456
1.57874
1.64389
1.67607
1.68591
1.68741
1.68039
1.66432
1.65812
1.16051
1.16298
1.20152
1.26707
1.30537
1.31389
1.30434
1.31333
1.33986
1.36245
1.37441
1.3825
1.38938
1.40774
1.43639
1.46519
1.48762
1.52572
1.59005
1.61959
1.62991
1.63212
1.62613
1.611
1.60508
1.10866
1.1064
1.16011
1.21852
1.25275
1.25762
1.24789
1.25885
1.2865
1.3099
1.32304
1.32899
1.33563
1.35478
1.38373
1.41205
1.434
1.47583
1.53895
1.56669
1.5773
1.58032
1.57499
1.56102
1.55541
1.05579
1.05699
1.12088
1.17282
1.20315
1.20553
1.19536
1.20844
1.23744
1.26123
1.27484
1.27865
1.28533
1.30514
1.33432
1.36176
1.38382
1.42868
1.49005
1.51614
1.52746
1.53104
1.52652
1.51374
1.50862
0.996924
1.00968
1.07705
1.12268
1.14871
1.14961
1.14117
1.15705
1.18765
1.21257
1.22629
1.22871
1.23613
1.25732
1.28678
1.31392
1.33693
1.38526
1.44526
1.47069
1.48292
1.48747
1.48392
1.47204
1.46715
0.960038
0.988268
1.05488
1.0959
1.11342
1.11446
1.1086
1.12516
1.15472
1.17627
1.18807
1.18892
1.19641
1.21678
1.24385
1.26835
1.29257
1.34151
1.39575
1.4189
1.43058
1.4352
1.43213
1.42186
1.41875
0.834507
0.887333
0.944544
0.980514
1.00404
1.00028
0.999898
1.02547
1.06582
1.09721
1.11036
1.11217
1.12306
1.15043
1.18534
1.21695
1.24786
1.30551
1.3678
1.39716
1.4143
1.42288
1.4223
1.41331
1.40883
1.14443
1.15846
1.16669
1.17113
1.17434
1.17645
1.18166
1.19063
1.20058
1.20806
1.21361
1.2216
1.23473
1.25186
1.27075
1.28992
1.30958
1.33129
1.35018
1.36261
1.37314
1.3819
1.38625
1.38166
1.37386
0.0338322
0.410234
0.760086
0.740265
0.755949
0.766687
0.775476
0.78267
0.788638
0.79367
0.798026
0.801901
0.805438
0.808724
0.811834
0.814837
0.817815
0.820841
0.82398
0.827288
0.830801
0.834531
0.838468
0.8426
0.846923
0.851436
0.856136
0.861007
0.866031
0.87118
0.87642
0.88171
0.887013
0.892285
0.897491
0.902598
0.907581
0.912413
0.917067
0.921533
0.925795
0.929841
0.933663
0.937261
0.940635
0.94381
0.946778
0.94957
0.952185
0.954649
0.956967
0.959174
0.961298
0.963365
0.965442
0.967563
0.969791
0.972178
0.974791
0.977757
0.981322
0.985911
0.992155
1.00081
1.01271
1.02854
1.04832
1.07129
1.09668
1.12451
1.15521
1.18905
1.22519
1.26124
1.29696
1.33387
1.37201
1.40885
1.44113
1.46343
1.47812
1.49073
1.50213
1.51114
1.51577
1.51536
1.51206
1.50877
1.50626
1.50287
1.49831
1.4917
1.48136
1.46786
1.45068
1.42958
1.40624
1.38653
1.37478
3.54183
0.27641
0.784536
0.776122
0.783383
0.790313
0.795338
0.798831
0.801047
0.802168
0.802361
0.801776
0.800559
0.79879
0.796491
0.79368
0.790401
0.786694
0.782586
0.778126
0.773376
0.768398
0.763237
0.757896
0.752381
0.746697
0.740885
0.734981
0.72902
0.723047
0.717101
0.711218
0.705426
0.699733
0.694144
0.68868
0.683347
0.678171
0.673157
0.668323
0.663674
0.659214
0.654954
0.650878
0.647
0.643325
0.639853
0.636596
0.633571
0.630777
0.628219
0.625931
0.623915
0.622127
0.620593
0.619266
0.618148
0.617228
0.616482
0.615927
0.615556
0.615312
0.615087
0.61482
0.614997
0.617902
0.628122
0.647282
0.667611
0.677521
0.677089
0.678846
0.694816
0.718643
0.746154
0.795535
0.888875
1.00894
1.13175
1.2089
1.23185
1.2432
1.26291
1.29365
1.33192
1.37099
1.40186
1.42706
1.45535
1.475
1.49047
1.50192
1.50789
1.5078
1.49017
1.46519
1.44413
1.42732
1.41465
2.34835
0.283935
0.797702
0.809078
0.812769
0.818335
0.822577
0.825498
0.827359
0.828338
0.828578
0.828198
0.827338
0.826111
0.824562
0.822699
0.820558
0.818185
0.815603
0.81284
0.809922
0.806895
0.803818
0.800726
0.797621
0.794472
0.791287
0.788082
0.78487
0.781669
0.778497
0.775377
0.772327
0.769361
0.766476
0.763676
0.760958
0.75833
0.755795
0.753362
0.751035
0.748822
0.746727
0.744749
0.742889
0.741153
0.739539
0.738059
0.736716
0.735522
0.734486
0.733622
0.732962
0.732529
0.732318
0.732329
0.73254
0.732931
0.73351
0.734279
0.735299
0.736615
0.738247
0.740154
0.742194
0.744727
0.751076
0.76764
0.793451
0.816401
0.824788
0.828762
0.843366
0.869974
0.897415
0.930324
0.999238
1.10176
1.20934
1.29294
1.32624
1.33736
1.35038
1.37289
1.40181
1.43351
1.45966
1.48023
1.50567
1.52549
1.53764
1.54517
1.5474
1.54441
1.5202
1.48948
1.46313
1.44182
1.42622
2.15992
0.286836
0.816274
0.849318
0.849975
0.85349
0.856463
0.858296
0.859212
0.859384
0.858935
0.85796
0.856559
0.854845
0.852886
0.850679
0.848231
0.84558
0.842748
0.839765
0.836644
0.833412
0.830113
0.826804
0.823516
0.820222
0.8169
0.813568
0.810237
0.806924
0.803646
0.800418
0.79726
0.794189
0.791214
0.788331
0.785537
0.782836
0.780228
0.77772
0.775315
0.773022
0.770844
0.768782
0.766837
0.765008
0.763298
0.761721
0.76029
0.759012
0.757887
0.756924
0.756148
0.755607
0.755322
0.75527
0.755432
0.755785
0.756324
0.757046
0.757952
0.759057
0.760389
0.761966
0.763795
0.766165
0.771359
0.78528
0.808771
0.834053
0.844573
0.847468
0.857842
0.883149
0.911435
0.94289
1.00314
1.10733
1.22194
1.32343
1.37068
1.38694
1.4
1.42209
1.45231
1.48751
1.51808
1.54096
1.56812
1.58769
1.60085
1.60861
1.60985
1.60535
1.57389
1.53966
1.5117
1.48983
1.47411
2.02486
0.28556
0.836786
0.893605
0.892746
0.894434
0.896495
0.897643
0.898016
0.897792
0.89709
0.895991
0.894567
0.892911
0.891108
0.889153
0.88702
0.88474
0.882327
0.879795
0.877151
0.874413
0.871605
0.868775
0.865974
0.863181
0.860354
0.857495
0.854619
0.851737
0.848861
0.846007
0.843193
0.840441
0.837759
0.835143
0.832588
0.830096
0.82767
0.825315
0.823043
0.820865
0.818789
0.81681
0.814931
0.81315
0.81147
0.809913
0.808497
0.807226
0.806109
0.805151
0.804365
0.803786
0.803437
0.803321
0.803419
0.803722
0.804222
0.804914
0.805799
0.806898
0.808238
0.809832
0.811648
0.813799
0.817869
0.829169
0.851796
0.879568
0.894186
0.89736
0.904359
0.927858
0.957162
0.986136
1.03487
1.1325
1.247
1.35933
1.42289
1.44598
1.45823
1.4773
1.50658
1.54266
1.57562
1.59926
1.62613
1.64494
1.65798
1.66521
1.66593
1.65919
1.62156
1.58423
1.55468
1.53206
1.51587
2.03867
0.243267
0.859415
0.94159
0.940227
0.940048
0.941247
0.941801
0.941704
0.941141
0.940234
0.939049
0.937639
0.936076
0.934444
0.932739
0.930914
0.928971
0.926925
0.92478
0.92253
0.920184
0.917756
0.915284
0.912827
0.910364
0.907837
0.905248
0.902611
0.899932
0.897224
0.894503
0.891798
0.889134
0.88651
0.883918
0.881355
0.87883
0.876344
0.87391
0.871545
0.869266
0.867079
0.864979
0.862972
0.861053
0.859223
0.857494
0.855872
0.854376
0.853029
0.851846
0.850837
0.850028
0.849461
0.849154
0.849097
0.849275
0.849678
0.850291
0.851112
0.852156
0.853443
0.854995
0.856795
0.858875
0.862201
0.871202
0.891952
0.92025
0.939825
0.944231
0.948395
0.968708
0.999105
1.02794
1.0687
1.15627
1.27099
1.39024
1.47136
1.50398
1.5177
1.53424
1.56325
1.60065
1.63679
1.66264
1.68979
1.70714
1.71974
1.72693
1.72625
1.71707
1.67313
1.63335
1.60268
1.57945
1.56287
2.16951
0.18468
0.882828
0.992959
0.991948
0.989872
0.990259
0.990341
0.989888
0.989097
0.988087
0.986924
0.985638
0.984277
0.982926
0.98157
0.980138
0.978622
0.977014
0.975317
0.973509
0.971591
0.969568
0.96749
0.9654
0.963253
0.961001
0.95865
0.956207
0.95368
0.951084
0.948438
0.945784
0.943146
0.940506
0.93786
0.935211
0.932574
0.929956
0.927369
0.924824
0.922327
0.91989
0.917526
0.915243
0.913053
0.910963
0.908981
0.907108
0.905364
0.903775
0.902364
0.901139
0.900122
0.899346
0.898845
0.898627
0.898678
0.898977
0.899514
0.900277
0.901274
0.90252
0.90404
0.905824
0.907857
0.910707
0.917817
0.935945
0.963929
0.98849
0.995226
0.997338
1.01364
1.04438
1.07416
1.10903
1.18367
1.29762
1.42039
1.51776
1.56231
1.57998
1.59472
1.62254
1.66023
1.69934
1.72855
1.75602
1.7715
1.78265
1.78989
1.78828
1.77545
1.72646
1.68469
1.6533
1.62981
1.61289
2.41474
0.234842
0.906571
1.04759
1.04757
1.0435
1.04306
1.04275
1.04203
1.04108
1.04006
1.03899
1.03791
1.03684
1.03585
1.0349
1.03391
1.03285
1.03172
1.03048
1.02913
1.02763
1.02601
1.02431
1.02254
1.02064
1.01859
1.0164
1.01407
1.01162
1.00906
1.0064
1.00366
1.00086
0.998009
0.995128
0.992232
0.989342
0.986469
0.983626
0.980825
0.978076
0.975392
0.972777
0.970244
0.967809
0.965483
0.96327
0.961168
0.959188
0.957355
0.955698
0.954248
0.95301
0.952011
0.951293
0.950883
0.950773
0.950947
0.95139
0.952082
0.953021
0.95422
0.9557
0.957463
0.959475
0.962037
0.967646
0.982812
1.00994
1.03831
1.04868
1.04973
1.06175
1.09159
1.12308
1.15448
1.21633
1.32675
1.45024
1.56085
1.62018
1.64463
1.65895
1.68429
1.72165
1.76403
1.79798
1.82649
1.83947
1.84895
1.85518
1.85331
1.83528
1.78224
1.73898
1.70705
1.68328
1.66614
2.77719
0.349778
0.931104
1.10546
1.10687
1.10067
1.09937
1.09872
1.09779
1.09677
1.0958
1.09491
1.09411
1.0934
1.09283
1.09232
1.09179
1.09121
1.09055
1.08977
1.08885
1.08777
1.08651
1.08506
1.08341
1.08156
1.07952
1.07732
1.07495
1.07244
1.0698
1.06704
1.06419
1.06126
1.05827
1.05523
1.05217
1.04911
1.04605
1.04301
1.04
1.03704
1.03414
1.0313
1.02854
1.02586
1.0233
1.02086
1.01853
1.01632
1.01425
1.01234
1.01064
1.00917
1.00794
1.00699
1.00635
1.00605
1.00608
1.0064
1.007
1.00787
1.00902
1.01046
1.01219
1.01419
1.01658
1.02106
1.03339
1.05889
1.08943
1.10478
1.10602
1.11387
1.14128
1.17466
1.20471
1.25559
1.35832
1.48141
1.60174
1.67766
1.71101
1.72629
1.74788
1.7849
1.83093
1.87071
1.90085
1.91141
1.91801
1.92346
1.92031
1.89648
1.84064
1.79607
1.76386
1.74
1.72264
3.15488
0.0011242
0.958914
1.16627
1.16949
1.16103
1.15881
1.15782
1.15673
1.15568
1.1548
1.15413
1.15365
1.15331
1.15307
1.15286
1.15266
1.1524
1.15205
1.15157
1.15094
1.15012
1.1491
1.14787
1.14643
1.14477
1.1429
1.14082
1.13856
1.13611
1.1335
1.13074
1.12786
1.12487
1.1218
1.11866
1.11547
1.11225
1.10902
1.1058
1.10261
1.09944
1.09633
1.09328
1.09029
1.08739
1.08458
1.0819
1.07934
1.0769
1.07459
1.07243
1.07047
1.06875
1.06727
1.06606
1.06518
1.06465
1.06449
1.06467
1.06516
1.06595
1.06703
1.06841
1.07011
1.07209
1.0744
1.0781
1.08793
1.11081
1.14219
1.16321
1.16602
1.1702
1.19385
1.22864
1.25913
1.30133
1.39255
1.51479
1.64154
1.73426
1.77833
1.7964
1.81382
1.85045
1.89988
1.94599
1.97909
1.9869
1.99001
1.99464
1.99031
1.96067
1.90204
1.85626
1.8237
1.7999
1.78253
3.46171
0.245723
0.995864
1.22889
1.23431
1.22365
1.22039
1.21897
1.21763
1.21645
1.21559
1.21504
1.21477
1.21473
1.21484
1.21504
1.21527
1.21547
1.21556
1.21553
1.21532
1.21491
1.21428
1.2134
1.21228
1.2109
1.20926
1.20739
1.20529
1.20297
1.20046
1.19776
1.1949
1.19191
1.18879
1.18559
1.18231
1.17898
1.17562
1.17224
1.16887
1.16552
1.16221
1.15895
1.15575
1.15262
1.14957
1.14664
1.14383
1.14116
1.13861
1.1362
1.13397
1.13197
1.13022
1.12875
1.12759
1.12681
1.12642
1.12642
1.12676
1.12745
1.12845
1.12977
1.13142
1.13338
1.13564
1.13882
1.14659
1.16624
1.19745
1.22371
1.22951
1.23101
1.25013
1.28518
1.31733
1.35346
1.43105
1.5511
1.68133
1.78894
1.84605
1.86957
1.88383
1.91902
1.97048
2.02296
2.06107
2.06763
2.06675
2.06854
2.06416
2.0284
1.96673
1.91988
1.88703
1.86313
1.8457
3.73002
0.202218
1.03684
1.2949
1.30144
1.28845
1.28402
1.28205
1.28038
1.27906
1.27822
1.27784
1.27785
1.27818
1.27872
1.2794
1.28014
1.28085
1.28149
1.28198
1.28229
1.28238
1.28221
1.28178
1.28106
1.28005
1.27875
1.27717
1.27532
1.27321
1.27086
1.26829
1.26552
1.26258
1.25948
1.25626
1.25292
1.24951
1.24605
1.24254
1.23902
1.2355
1.232
1.22853
1.22511
1.22176
1.21849
1.2153
1.21223
1.20931
1.20651
1.20385
1.20135
1.19905
1.19701
1.19526
1.19382
1.19275
1.1921
1.19186
1.19204
1.19258
1.19348
1.19473
1.19632
1.19825
1.20048
1.20334
1.20949
1.22581
1.25579
1.28599
1.29634
1.29645
1.31068
1.34442
1.37894
1.41159
1.47581
1.59078
1.72155
1.8411
1.91391
1.94566
1.95893
1.99069
2.04254
2.10129
2.1469
2.15289
2.14651
2.14711
2.14073
2.09888
2.03516
1.98705
1.95376
1.92988
1.91247
3.97292
0.0464558
1.08233
1.36431
1.37092
1.3555
1.34978
1.34715
1.3451
1.34362
1.34281
1.34263
1.34296
1.34371
1.34476
1.346
1.34734
1.34867
1.34994
1.35106
1.35199
1.35267
1.35307
1.35318
1.35296
1.35242
1.35154
1.35034
1.34883
1.34701
1.3449
1.34253
1.33992
1.33708
1.33406
1.33086
1.32752
1.32406
1.32052
1.31692
1.31326
1.30958
1.3059
1.30225
1.29862
1.29505
1.29155
1.28812
1.28479
1.28159
1.27854
1.27562
1.27284
1.27025
1.2679
1.26584
1.2641
1.26272
1.26176
1.26126
1.2612
1.26158
1.26235
1.2635
1.26502
1.26691
1.26912
1.27179
1.27673
1.28997
1.31754
1.35015
1.36626
1.36649
1.37595
1.40682
1.44368
1.47523
1.52789
1.63365
1.76327
1.89159
1.98183
2.024
2.03861
2.06474
2.11614
2.18131
2.23671
2.24503
2.23246
2.22852
2.22186
2.17394
2.10754
2.05816
2.02425
2.00018
1.98288
4.19198
0.0703048
1.13431
1.43675
1.44283
1.42481
1.4177
1.41433
1.41186
1.41021
1.40946
1.40952
1.41024
1.41149
1.41312
1.41501
1.41703
1.41908
1.42107
1.42292
1.42456
1.42594
1.42701
1.42776
1.42814
1.42816
1.4278
1.42707
1.42598
1.42453
1.42274
1.42065
1.41825
1.41559
1.4127
1.40958
1.40628
1.40283
1.39925
1.39557
1.39182
1.38801
1.38418
1.38034
1.37652
1.37273
1.36899
1.36532
1.36173
1.35825
1.35492
1.35174
1.34868
1.34579
1.34312
1.34073
1.33867
1.33696
1.33567
1.33485
1.33453
1.33468
1.33529
1.33632
1.33775
1.33958
1.34176
1.34432
1.34841
1.35898
1.38328
1.41688
1.43891
1.44103
1.44632
1.47313
1.51146
1.54384
1.58738
1.68016
1.80805
1.94201
2.04948
2.10395
2.12205
2.14127
2.1919
2.26331
2.33007
2.34119
2.32252
2.31441
2.30603
2.25297
2.18428
2.13336
2.09878
2.07451
2.0572
4.39396
0.10908
1.1916
1.51259
1.51719
1.49641
1.48785
1.48366
1.48075
1.47895
1.47829
1.47863
1.47981
1.48163
1.48394
1.48656
1.48937
1.49223
1.49504
1.49771
1.50016
1.50234
1.50418
1.50566
1.50675
1.50742
1.50767
1.5075
1.50692
1.50593
1.50455
1.5028
1.50071
1.49829
1.49559
1.49262
1.48941
1.48601
1.48244
1.47873
1.47491
1.471
1.46704
1.46304
1.45902
1.45503
1.45107
1.44716
1.44331
1.43955
1.43593
1.43246
1.42913
1.42594
1.42294
1.4202
1.41779
1.41574
1.41409
1.41292
1.41227
1.41217
1.41256
1.41343
1.41475
1.4165
1.41863
1.42112
1.42466
1.43303
1.45373
1.48691
1.51401
1.51979
1.52208
1.54409
1.58249
1.617
1.65417
1.73243
1.85699
1.99312
2.11575
2.18507
2.20918
2.22208
2.27086
2.34704
2.42572
2.44411
2.41885
2.40587
2.39484
2.33628
2.26558
2.21312
2.17754
2.15295
2.13575
4.57828
0.202478
1.25466
1.59184
1.59406
1.57037
1.56028
1.55524
1.55186
1.54993
1.54941
1.55012
1.55183
1.55431
1.55737
1.56081
1.56449
1.56825
1.57198
1.57556
1.57892
1.58199
1.5847
1.58702
1.5889
1.59033
1.59129
1.59177
1.59179
1.59135
1.59047
1.58915
1.58744
1.58535
1.58291
1.58015
1.57711
1.57382
1.5703
1.5666
1.56275
1.55877
1.5547
1.55057
1.54639
1.54221
1.53803
1.53389
1.52978
1.52576
1.52184
1.51807
1.51445
1.51096
1.50764
1.50454
1.50175
1.49933
1.4973
1.49574
1.49473
1.4943
1.49443
1.4951
1.49626
1.49791
1.49999
1.50243
1.5056
1.51226
1.52944
1.56083
1.59167
1.60245
1.60329
1.62023
1.65707
1.69423
1.72795
1.79258
1.9104
2.04597
2.18023
2.26705
2.30011
2.30938
2.3537
2.43197
2.52229
2.55153
2.52219
2.5006
2.48803
2.42497
2.35176
2.29744
2.26086
2.23587
2.21863
4.74796
0.301891
1.32322
1.67465
1.67348
1.64675
1.6351
1.62916
1.62533
1.6233
1.62299
1.62414
1.62645
1.62966
1.63356
1.63791
1.64255
1.6473
1.65203
1.65662
1.66099
1.66504
1.66871
1.67196
1.67473
1.67702
1.67878
1.68003
1.68075
1.68095
1.68065
1.67986
1.67862
1.67694
1.67485
1.67237
1.66955
1.66644
1.66305
1.65941
1.65557
1.65157
1.64744
1.6432
1.63888
1.63452
1.63015
1.62578
1.62143
1.61714
1.61293
1.60885
1.60492
1.60113
1.59748
1.59403
1.59084
1.58802
1.5856
1.58363
1.58221
1.58139
1.58121
1.58161
1.58259
1.58409