/*--------------------------------*- C++ -*----------------------------------*\
  =========                 |
  \\      /  F ield         | OpenFOAM: The Open Source CFD Toolbox
   \\    /   O peration     | Website:  https://openfoam.org
    \\  /    A nd           | Version:  9
     \\/     M anipulation  |
\*---------------------------------------------------------------------------*/
FoamFile
{
    format      ascii;
    class       volScalarField;
    location    "2250";
    object      p;
}
// * * * * * * * * * * * * * * * * * * * * * * * * * * * * * * * * * * * * * //

dimensions      [0 2 -2 0 0 0 0];

internalField   nonuniform List<scalar> 
13354
(
-0.156036
-0.182491
-0.200073
-0.192431
-0.170475
-0.142861
-0.110399
-0.0759619
-0.0414892
-0.0119823
0.0213993
0.0619247
0.0949909
-0.143397
-0.170632
-0.197102
-0.202582
-0.192754
-0.177507
-0.15312
-0.124636
-0.0910598
-0.0634856
-0.0341069
0.00529172
0.041031
-0.120495
-0.141061
-0.173637
-0.194645
-0.204131
-0.209336
-0.201977
-0.183899
-0.153707
-0.126908
-0.099574
-0.0584177
-0.0121943
-0.0844854
-0.102378
-0.139528
-0.174912
-0.203603
-0.231041
-0.247966
-0.244174
-0.219909
-0.192321
-0.163678
-0.120389
-0.0653575
-0.0473119
-0.0627182
-0.0987543
-0.143818
-0.188852
-0.238168
-0.282716
-0.29861
-0.287926
-0.26307
-0.230359
-0.183487
-0.12161
-0.01218
-0.0243139
-0.0553766
-0.103646
-0.157738
-0.221183
-0.285148
-0.321508
-0.331617
-0.319216
-0.287809
-0.238714
-0.172373
0.0202542
0.0119211
-0.0131216
-0.059049
-0.113624
-0.179072
-0.24652
-0.294053
-0.322598
-0.328843
-0.310359
-0.268152
-0.20598
0.0504184
0.0458148
0.0266684
-0.0131346
-0.0614679
-0.119381
-0.17896
-0.230368
-0.273047
-0.295713
-0.29184
-0.262899
-0.21505
0.0776102
0.0762422
0.0624158
0.0309418
-0.00777828
-0.0543821
-0.104752
-0.155527
-0.202128
-0.232069
-0.239875
-0.227265
-0.199493
0.0996599
0.101263
0.0913843
0.0688888
0.039908
0.00375759
-0.0377932
-0.0828688
-0.125274
-0.156651
-0.172378
-0.174538
-0.165974
0.114801
0.119075
0.112179
0.097337
0.0764815
0.0491401
0.0160121
-0.020711
-0.056521
-0.0859086
-0.105429
-0.117877
-0.123553
0.123489
0.129567
0.125057
0.115686
0.101021
0.0805793
0.0553282
0.0268338
-0.00224723
-0.0280223
-0.0482175
-0.0660667
-0.0801924
0.126771
0.133848
0.131358
0.12527
0.11493
0.100073
0.0813838
0.059673
0.0365942
0.0149076
-0.00395617
-0.0232861
-0.0410821
0.125507
0.132893
0.131854
0.127901
0.120897
0.110263
0.0965542
0.0801695
0.0621128
0.0443689
0.0278801
0.00955128
-0.00872596
0.121088
0.127949
0.128418
0.125915
0.121308
0.113736
0.103688
0.0913897
0.0773922
0.0631664
0.0493578
0.033265
0.0162875
0.115017
0.120925
0.122612
0.12109
0.118065
0.1127
0.105312
0.0960863
0.0853167
0.0740517
0.062807
0.0493392
0.0344999
0.108154
0.11311
0.1155
0.11464
0.112578
0.108796
0.103333
0.0964096
0.0881569
0.0793093
0.0702995
0.0593774
0.0469105
0.100835
0.105007
0.107685
0.107365
0.105861
0.103191
0.0991326
0.0939227
0.0876061
0.0806789
0.0735256
0.0648498
0.0546618
0.0933236
0.0969603
0.0996188
0.0997386
0.0985984
0.0966776
0.0936578
0.0897143
0.084872
0.0794546
0.0737971
0.0669902
0.0588313
0.0858448
0.0891024
0.0915321
0.0920483
0.0911937
0.0897733
0.0875333
0.0845216
0.0807975
0.0765612
0.0720897
0.0667828
0.0603516
0.0785649
0.0815361
0.0836328
0.0844443
0.0838705
0.0828074
0.0811352
0.0788274
0.0759605
0.0726482
0.0691064
0.064983
0.059967
0.0716125
0.0742906
0.0760479
0.0770501
0.0767815
0.0759664
0.0747119
0.072961
0.0707523
0.0681586
0.0653518
0.0621481
0.0582672
0.0650683
0.0674417
0.0689603
0.0700103
0.0699927
0.0693872
0.0684588
0.067135
0.0654269
0.0633982
0.0611768
0.0586808
0.0556997
0.0589553
0.0610271
0.062417
0.0633815
0.0635878
0.0631894
0.0624853
0.0614773
0.0601619
0.0585809
0.0568244
0.0548728
0.0525971
0.0532684
0.0550562
0.0563728
0.0572284
0.0575787
0.0573511
0.056823
0.0560693
0.0550716
0.0538475
0.0524614
0.0509286
0.0492015
0.0480063
0.0495507
0.050798
0.0515627
0.0519792
0.0519251
0.0515568
0.050995
0.050241
0.0492945
0.0482029
0.0469931
0.0456906
0.0431605
0.0445079
0.0456785
0.0464324
0.0468653
0.0469401
0.0467008
0.0462788
0.045709
0.0449793
0.0441249
0.0431636
0.0421885
0.0387078
0.039892
0.0409723
0.0417424
0.0421705
0.0423376
0.0422188
0.0419144
0.041488
0.0409335
0.0402735
0.0395058
0.0387841
0.0346299
0.035682
0.036674
0.0374546
0.0379105
0.0381346
0.0381198
0.0379131
0.0375976
0.03718
0.0366763
0.0360606
0.0355331
0.0309026
0.0318439
0.0327516
0.0335245
0.0340348
0.0342971
0.0343665
0.0342517
0.0340296
0.033715
0.0333396
0.0328464
0.0324684
0.0275054
0.0283522
0.0291811
0.0299266
0.0304782
0.0307903
0.0309285
0.0309055
0.0307659
0.030534
0.0302622
0.0298688
0.0296081
0.0244194
0.0251851
0.0259436
0.0266538
0.027231
0.0276076
0.0278015
0.0278559
0.027791
0.02763
0.0274406
0.0271276
0.0269592
0.0216217
0.0223166
0.0230109
0.0236795
0.0242619
0.0246912
0.0249496
0.0250633
0.0250728
0.0249772
0.0248578
0.0246115
0.0245149
0.0190914
0.0197236
0.0203591
0.0209824
0.0215527
0.0220134
0.0223314
0.0225035
0.0225834
0.0225523
0.0224962
0.0223087
0.0222664
0.0168087
0.0173844
0.0179657
0.0185434
0.0190911
0.0195643
0.0199287
0.0201609
0.020299
0.0203305
0.0203361
0.0202031
0.0202045
0.0142286
0.0147516
0.0152762
0.0158076
0.0163407
0.0168586
0.0173286
0.0177207
0.0180035
0.0181973
0.0182839
0.0183483
0.0182725
0.0183093
0.00832089
0.00887047
0.00940953
0.00993795
0.0104555
0.0109625
0.0114589
0.0119452
0.0124245
0.0129007
0.0133786
0.0138634
0.0143528
0.0148364
0.0152909
0.015693
0.016011
0.0162523
0.0163911
0.0165061
0.0164882
0.0165585
0.00713103
0.00761716
0.00809526
0.00856542
0.00902768
0.00948248
0.00992947
0.0103691
0.0108036
0.0112362
0.0116708
0.0121117
0.0125587
0.0130054
0.0134357
0.0138327
0.0141685
0.0144434
0.0146274
0.0147832
0.0148206
0.0149247
0.00606174
0.00649226
0.00691689
0.00733581
0.00774893
0.00815653
0.00855856
0.00895548
0.00934876
0.009741
0.0101352
0.0105351
0.0109411
0.01135
0.0117505
0.0121312
0.0124695
0.0127627
0.0129805
0.0131679
0.0132528
0.0133834
0.00510589
0.00548739
0.00586467
0.0062378
0.00660704
0.00697249
0.00733404
0.00769193
0.00804711
0.00840162
0.00875798
0.00911907
0.00948594
0.00985707
0.0102249
0.010582
0.0109109
0.0112082
0.0114468
0.0116565
0.01178
0.0119298
0.00425626
0.00459455
0.00493002
0.00526268
0.00559254
0.00591967
0.00624401
0.0065659
0.00688592
0.00720555
0.00752675
0.00785186
0.00818204
0.00851682
0.00885117
0.00918045
0.0094917
0.00978194
0.0100288
0.0102514
0.0104036
0.0105678
0.00350566
0.0038057
0.00410385
0.00440011
0.00469457
0.00498737
0.00527832
0.00556742
0.00585511
0.00614249
0.0064311
0.0067229
0.00701898
0.00731945
0.00762112
0.00792125
0.00821026
0.00848605
0.00873066
0.00895655
0.009127
0.0093011
0.00257915
0.00284646
0.00311271
0.00337795
0.00364207
0.00390494
0.00416654
0.00442685
0.00468586
0.00494383
0.00520164
0.00546044
0.00572159
0.00598619
0.00625473
0.00652521
0.00679624
0.00706093
0.00731797
0.00755341
0.00777559
0.00795513
0.0081344
0.00203461
0.00227153
0.0025079
0.00274363
0.00297866
0.00321303
0.00344669
0.00367959
0.00391158
0.00414278
0.00437382
0.00460555
0.00483908
0.0050753
0.00531479
0.00555627
0.00579905
0.00603843
0.00627395
0.00649524
0.00670822
0.00688939
0.00706947
0.00156277
0.00177287
0.00198283
0.00219266
0.00240219
0.00261131
0.00281987
0.00302787
0.00323516
0.00344181
0.00364828
0.0038552
0.00406353
0.00427402
0.00448727
0.00470253
0.00491955
0.00513495
0.00534873
0.00555301
0.00575247
0.00592892
0.00610562
0.0011561
0.00134263
0.00152928
0.00171594
0.00190246
0.00208886
0.00227504
0.00246093
0.00264633
0.0028312
0.00301578
0.00320053
0.00338611
0.00357312
0.0037622
0.00395314
0.00414626
0.00433916
0.00453205
0.00471882
0.0049032
0.00507098
0.00524032
0.000806607
0.000972321
0.00113834
0.00130462
0.00147097
0.00163723
0.00180328
0.00196903
0.00213442
0.00229938
0.0024641
0.002629
0.00279462
0.00296128
0.00312949
0.00329908
0.00347037
0.00364175
0.00381389
0.00398271
0.0041514
0.00430851
0.00446829
0.000506373
0.000653723
0.000801471
0.000949494
0.00109763
0.00124587
0.00139408
0.00154208
0.00168974
0.00183693
0.00198371
0.00213033
0.00227735
0.00242529
0.00257475
0.00272561
0.00287797
0.00303051
0.00318392
0.0033353
0.00348761
0.00363218
0.00378087
0.000246966
0.000377998
0.00050949
0.000641355
0.000773374
0.000905459
0.00103747
0.00116933
0.001301
0.00143243
0.00156362
0.00169463
0.00182571
0.00195716
0.00208935
0.00222236
0.00235683
0.00249221
0.00262914
0.00276499
0.00290205
0.00303369
0.00316988
2.02196e-05
0.000136801
0.000253811
0.000371148
0.00048867
0.000606329
0.000723991
0.000841467
0.000958617
0.00107531
0.00119172
0.00130812
0.00142483
0.00154204
0.0016598
0.00177793
0.00189694
0.0020166
0.0021377
0.00225867
0.00238167
0.00250136
0.0026256
-0.00018233
-7.88868e-05
2.5018e-05
0.000129337
0.000233844
0.000338446
0.000443074
0.000547685
0.000652229
0.000756439
0.000860256
0.000963773
0.00106707
0.00117039
0.00127431
0.00137911
0.00148518
0.00159183
0.0016994
0.00180684
0.00191629
0.00202377
0.00213622
-0.000368303
-0.000276545
-0.000184376
-9.19197e-05
6.98108e-07
9.34519e-05
0.000186196
0.000278762
0.000371204
0.000463509
0.000555741
0.000648042
0.000740323
0.000832452
0.000924706
0.00101738
0.00111096
0.00120532
0.0013011
0.00139738
0.00149545
0.00159203
0.00169312
-0.000545798
-0.000465002
-0.000383781
-0.00030214
-0.000220221
-0.000138058
-5.57133e-05
2.66046e-05
0.00010881
0.000190784
0.000272387
0.000353676
0.000434982
0.000516692
0.000599173
0.000682231
0.00076565
0.000849315
0.000934085
0.00101961
0.00110725
0.00119463
0.00128645
-0.000721635
-0.000650757
-0.000579434
-0.000507761
-0.00043588
-0.000363834
-0.000291635
-0.00021932
-0.000146857
-7.42145e-05
-1.4779e-06
7.11823e-05
0.000143707
0.000216275
0.000289226
0.000362739
0.000437095
0.000512338
0.000588684
0.000665435
0.000743794
0.000822201
0.000904947
-0.000902429
-0.000841199
-0.00077941
-0.000717051
-0.000654209
-0.000590976
-0.000527477
-0.000463805
-0.000400071
-0.00033639
-0.00027271
-0.00020875
-0.000144168
-7.89136e-05
-1.327e-05
5.24957e-05
0.000118738
0.00018588
0.000254419
0.000324068
0.000395682
0.000467465
0.000542724
-0.00109309
-0.00104092
-0.000988114
-0.000934793
-0.000881033
-0.00082679
-0.000772067
-0.000716841
-0.000661079
-0.000604858
-0.000548375
-0.000491676
-0.000434616
-0.000377016
-0.000318707
-0.000259453
-0.000199122
-0.000138014
-7.60378e-05
-1.31579e-05
5.16755e-05
0.000117272
0.000186703
-0.00129694
-0.00125401
-0.00121021
-0.00116556
-0.00112011
-0.0010739
-0.00102707
-0.000979737
-0.000931938
-0.000883589
-0.000834491
-0.000784362
-0.000733229
-0.000681473
-0.000629238
-0.000576227
-0.000521956
-0.000466311
-0.000409097
-0.000350615
-0.000290635
-0.000230193
-0.00016643
-0.00151279
-0.00147887
-0.0014439
-0.00140799
-0.00137117
-0.00133335
-0.00129454
-0.00125466
-0.00121372
-0.0011719
-0.00112929
-0.00108579
-0.00104123
-0.000995497
-0.000948336
-0.000899732
-0.000850035
-0.000799363
-0.000747244
-0.000693578
-0.000637937
-0.000581145
-0.000521238
-0.00175982
-0.00173613
-0.00171121
-0.00168496
-0.00165743
-0.00162859
-0.00159851
-0.00156727
-0.00153491
-0.00150131
-0.0014663
-0.00142967
-0.00139145
-0.00135197
-0.00131143
-0.00126951
-0.00122588
-0.00118047
-0.00113335
-0.00108456
-0.00103462
-0.000983203
-0.000930644
-0.000875078
-0.00197152
-0.00195676
-0.00194053
-0.00192268
-0.00190333
-0.00188244
-0.00185989
-0.00183562
-0.00180963
-0.00178201
-0.00175287
-0.00172214
-0.00168971
-0.00165547
-0.00161921
-0.00158094
-0.0015411
-0.00149986
-0.00145695
-0.00141213
-0.00136558
-0.00131714
-0.00126762
-0.00121604
-0.00217321
-0.00216807
-0.00216159
-0.00215334
-0.0021432
-0.00213119
-0.00211726
-0.00210142
-0.00208372
-0.00206409
-0.00204237
-0.00201837
-0.00199211
-0.00196388
-0.00193394
-0.00190207
-0.00186803
-0.00183185
-0.00179361
-0.00175352
-0.00171204
-0.00166932
-0.00162491
-0.0015792
-0.00153128
-0.00233099
-0.00233307
-0.00233362
-0.00233216
-0.00232854
-0.0023228
-0.00231483
-0.00230449
-0.00229178
-0.00227677
-0.00225956
-0.00224011
-0.0022184
-0.00219438
-0.00216789
-0.00213894
-0.00210798
-0.00207536
-0.00204092
-0.00200456
-0.0019664
-0.00192664
-0.00188555
-0.00184379
-0.00180073
-0.00244393
-0.00245155
-0.00245758
-0.00246142
-0.00246291
-0.00246206
-0.00245874
-0.00245294
-0.00244466
-0.00243381
-0.00242026
-0.00240398
-0.00238526
-0.00236443
-0.00234146
-0.00231615
-0.00228859
-0.00225893
-0.00222742
-0.00219463
-0.00216078
-0.00212566
-0.00208923
-0.00205179
-0.002013
-0.00249473
-0.00250616
-0.00251588
-0.00252323
-0.00252798
-0.00253014
-0.00252955
-0.00252615
-0.00252007
-0.00251141
-0.00250019
-0.00248646
-0.00247026
-0.00245156
-0.00243037
-0.00240707
-0.00238218
-0.00235575
-0.00232766
-0.0022981
-0.00226726
-0.00223543
-0.00220314
-0.00217045
-0.00213702
-0.00247834
-0.00249148
-0.00250301
-0.00251211
-0.00251863
-0.00252256
-0.0025237
-0.00252206
-0.00251769
-0.00251055
-0.0025006
-0.00248811
-0.00247356
-0.00245705
-0.00243848
-0.00241796
-0.00239566
-0.00237182
-0.00234702
-0.00232161
-0.00229546
-0.00226846
-0.00224078
-0.00221248
-0.00218386
-0.0023899
-0.0024034
-0.00241533
-0.00242483
-0.00243163
-0.00243568
-0.00243686
-0.00243531
-0.00243119
-0.00242463
-0.00241572
-0.00240459
-0.00239135
-0.00237601
-0.00235884
-0.00234046
-0.00232109
-0.00230059
-0.00227914
-0.00225688
-0.00223401
-0.00221103
-0.00218815
-0.0021649
-0.00214157
-0.00223546
-0.00224793
-0.00225905
-0.00226784
-0.00227413
-0.00227797
-0.00227917
-0.00227781
-0.00227398
-0.00226773
-0.00225926
-0.00224906
-0.00223742
-0.00222432
-0.00220982
-0.00219415
-0.00217749
-0.0021602
-0.00214278
-0.00212522
-0.00210733
-0.00208916
-0.00207079
-0.00205218
-0.00203415
-0.00201914
-0.00203012
-0.00204002
-0.00204772
-0.00205303
-0.00205594
-0.0020564
-0.00205459
-0.00205074
-0.00204504
-0.00203764
-0.00202873
-0.00201834
-0.00200662
-0.00199416
-0.00198134
-0.00196806
-0.00195433
-0.00194026
-0.00192598
-0.0019119
-0.00189827
-0.00188487
-0.00187123
-0.00185799
-0.00175261
-0.00176157
-0.00176971
-0.0017759
-0.00178007
-0.00178232
-0.00178248
-0.00178067
-0.00177704
-0.00177174
-0.00176518
-0.00175773
-0.00174945
-0.00174034
-0.00173065
-0.00172048
-0.00170999
-0.00169974
-0.00168981
-0.00167995
-0.00167021
-0.00166049
-0.00165082
-0.00164144
-0.00163307
-0.00144456
-0.0014514
-0.0014578
-0.00146254
-0.0014656
-0.00146701
-0.0014666
-0.00146467
-0.00146149
-0.00145717
-0.00145192
-0.00144581
-0.00143888
-0.00143148
-0.00142417
-0.00141695
-0.00140966
-0.00140243
-0.00139525
-0.00138831
-0.00138205
-0.0013763
-0.00137069
-0.00136514
-0.00136013
-0.00111006
-0.00111485
-0.00111952
-0.00112285
-0.00112488
-0.00112569
-0.0011251
-0.00112328
-0.00112044
-0.00111673
-0.00111252
-0.001108
-0.00110311
-0.00109794
-0.00109269
-0.00108739
-0.00108232
-0.00107787
-0.0010738
-0.00106996
-0.00106638
-0.00106297
-0.00105991
-0.00105744
-0.00105583
-0.000765733
-0.000768707
-0.000771983
-0.000774361
-0.000775778
-0.000776305
-0.000775846
-0.000774617
-0.000772802
-0.000770416
-0.000767598
-0.000764362
-0.000760791
-0.000757394
-0.000754402
-0.000751591
-0.000748951
-0.000746493
-0.000744194
-0.000742558
-0.000741638
-0.000741067
-0.000740732
-0.000740618
-0.00074092
-0.000423958
-0.00042556
-0.000427834
-0.000429492
-0.000430455
-0.0004309
-0.000430645
-0.000429768
-0.000428438
-0.000426844
-0.000425223
-0.000423485
-0.000421604
-0.000419765
-0.000417969
-0.000416319
-0.000415203
-0.000414589
-0.00041419
-0.000414156
-0.000414368
-0.000414831
-0.000415899
-0.000417567
-0.000419906
-0.000106595
-0.000107316
-0.0001091
-0.000110695
-0.000111935
-0.000112915
-0.000113511
-0.0001138
-0.000113872
-0.000113746
-0.000113419
-0.000112816
-0.000112315
-0.000112215
-0.000112386
-0.000112727
-0.000113287
-0.000114033
-0.000115133
-0.000116925
-0.000119283
-0.00012208
-0.000125441
-0.000129452
-0.00013405
0.000181649
0.000181335
0.000179701
0.000177961
0.000176475
0.000175147
0.000174073
0.000173197
0.000172345
0.000171452
0.000170545
0.00016974
0.000168898
0.000167994
0.000167056
0.000165771
0.000163934
0.000161699
0.000159023
0.000155714
0.000151841
0.000147496
0.000142615
0.000137167
0.000131128
0.00042347
0.000423341
0.000421795
0.000419839
0.00041781
0.000415692
0.000413582
0.000411476
0.000409333
0.000407251
0.000405298
0.000403382
0.000401159
0.000398589
0.000395783
0.000392586
0.000388848
0.000384679
0.000380029
0.000374808
0.000369062
0.000362857
0.000356211
0.00034906
0.000341539
0.000618072
0.000618046
0.000616668
0.000614758
0.000612676
0.00061045
0.000608106
0.000605584
0.000602828
0.000599889
0.00059685
0.000593665
0.000590153
0.000586291
0.000582138
0.000577593
0.00057259
0.000567199
0.000561401
0.000555161
0.000548522
0.000541532
0.000534189
0.000526511
0.000518498
0.00074346
0.000743102
0.000741561
0.000739427
0.000736884
0.000733936
0.000730634
0.000726966
0.000722937
0.000718602
0.000714034
0.000709214
0.000704056
0.00069857
0.00069278
0.000686654
0.000680176
0.000673396
0.000666302
0.000658893
0.000651206
0.000643271
0.000635107
0.000626712
0.00061816
0.000809834
0.000808878
0.000806965
0.000804483
0.000801522
0.000798052
0.000794135
0.00078978
0.000785021
0.00077993
0.000774563
0.000768936
0.000763024
0.00075685
0.000750439
0.000743787
0.000736909
0.000729838
0.000722579
0.000715139
0.000707548
0.000699824
0.000691968
0.000683991
0.000675893
0.000821256
0.000819585
0.000817176
0.000814229
0.000810783
0.000806797
0.000802329
0.000797415
0.000792099
0.000786457
0.000780554
0.000774422
0.000768072
0.000761536
0.000754839
0.000748003
0.00074105
0.000734
0.000726863
0.000719645
0.000712363
0.000705024
0.000697627
0.000690181
0.000682685
0.000796539
0.000794318
0.000791517
0.000788196
0.000784385
0.00078005
0.000775246
0.000770033
0.000764472
0.000758633
0.000752578
0.000746354
0.000740001
0.000733551
0.000727025
0.00072045
0.000713844
0.000707225
0.0007006
0.000693971
0.000687345
0.000680717
0.000674079
0.00066744
0.000660784
0.000747237
0.000744706
0.000741676
0.000738127
0.000734099
0.000729585
0.000724649
0.000719356
0.000713773
0.000707981
0.000702046
0.000696015
0.00068993
0.000683818
0.000677706
0.000671622
0.000665571
0.000659567
0.000653614
0.000647704
0.000641833
0.000635995
0.000630179
0.000624393
0.000618604
0.00068375
0.000681012
0.000677803
0.00067408
0.000669908
0.000665296
0.000660326
0.000655075
0.00064961
0.000644011
0.000638343
0.000632656
0.000626981
0.000621346
0.00061577
0.000610268
0.000604845
0.000599507
0.000594254
0.000589072
0.000583952
0.000578884
0.000573855
0.000568863
0.000563893
0.000612585
0.000609794
0.000606544
0.000602793
0.000598626
0.000594084
0.00058926
0.000584229
0.000579068
0.000573855
0.000568643
0.000563468
0.000558355
0.000553332
0.00054841
0.000543596
0.000538892
0.000534295
0.000529797
0.000525382
0.000521038
0.000516758
0.000512521
0.00050832
0.00050414
0.000537546
0.000534744
0.000531502
0.000527796
0.000523724
0.000519348
0.000514771
0.000510071
0.000505316
0.000500568
0.000495874
0.000491267
0.000486765
0.000482387
0.000478131
0.000473999
0.000469991
0.000466097
0.000462309
0.000458611
0.000454987
0.000451429
0.000447913
0.000444433
0.000440977
0.000461121
0.000458319
0.00045511
0.000451497
0.000447585
0.000443454
0.000439195
0.000434881
0.000430578
0.000426339
0.000422196
0.000418176
0.000414284
0.000410533
0.000406923
0.000403447
0.0004001
0.000396873
0.00039375
0.000390717
0.000387757
0.000384854
0.000381993
0.000379165
0.000376356
0.000386604
0.000383874
0.000380798
0.000377391
0.000373747
0.000369953
0.000366101
0.000362251
0.000358456
0.000354757
0.000351187
0.000347761
0.000344479
0.000341348
0.000338362
0.000335508
0.00033278
0.000330173
0.000327668
0.000325253
0.000322908
0.000320616
0.000318363
0.000316144
0.000313934
0.000314125
0.000311476
0.000308545
0.000305351
0.000301989
0.000298546
0.000295092
0.00029168
0.000288359
0.000285164
0.000282116
0.000279219
0.000276471
0.000273879
0.000271432
0.00026912
0.000266937
0.000264867
0.000262895
0.000261008
0.000259186
0.000257414
0.000255674
0.000253961
0.000252263
0.000247867
0.000245366
0.000242645
0.000239728
0.000236699
0.000233637
0.000230605
0.000227644
0.000224793
0.000222077
0.000219516
0.000217116
0.000214868
0.000212768
0.00021081
0.000208982
0.000207278
0.000205683
0.000204187
0.000202773
0.000201425
0.000200124
0.000198854
0.000197604
0.000196361
0.000185987
0.000183646
0.000181141
0.000178499
0.000175795
0.000173094
0.00017044
0.000167874
0.000165431
0.000163133
0.000160991
0.000159005
0.000157164
0.000155465
0.000153904
0.000152475
0.000151165
0.000149962
0.000148854
0.000147828
0.000146865
0.000145947
0.000145058
0.000144185
0.000143318
0.000127395
0.000125219
0.000122938
0.000120567
0.000118166
0.000115792
0.000113485
0.000111276
0.000109189
0.000107242
0.000105452
0.000103814
0.00010232
0.000100961
9.97312e-05
9.86281e-05
9.7638e-05
9.67512e-05
9.59613e-05
9.52562e-05
9.46149e-05
9.40199e-05
9.34552e-05
9.29069e-05
9.23634e-05
7.42912e-05
7.22701e-05
7.01826e-05
6.80435e-05
6.59099e-05
6.38214e-05
6.18013e-05
5.98782e-05
5.80807e-05
5.6427e-05
5.49238e-05
5.3564e-05
5.2335e-05
5.12331e-05
5.02567e-05
4.94055e-05
4.86664e-05
4.80316e-05
4.74943e-05
4.70428e-05
4.66548e-05
4.63118e-05
4.59996e-05
4.57038e-05
4.54101e-05
2.21917e-05
2.02847e-05
1.83642e-05
1.64316e-05
1.4523e-05
1.26699e-05
1.08958e-05
9.21937e-06
7.66224e-06
6.2399e-06
4.96034e-06
3.81992e-06
2.807e-06
1.91498e-06
1.14407e-06
4.90006e-07
-5.52391e-08
-4.99172e-07
-8.42676e-07
-1.09546e-06
-1.27989e-06
-1.41474e-06
-1.51455e-06
-1.59604e-06
-1.67292e-06
-1.81738e-05
-2.00685e-05
-2.19407e-05
-2.37951e-05
-2.55991e-05
-2.73335e-05
-2.89925e-05
-3.05607e-05
-3.20091e-05
-3.33186e-05
-3.44882e-05
-3.55249e-05
-3.64444e-05
-3.72527e-05
-3.7944e-05
-3.8517e-05
-3.89772e-05
-3.93306e-05
-3.95785e-05
-3.97324e-05
-3.98137e-05
-3.98431e-05
-3.98371e-05
-3.98118e-05
-3.97799e-05
-7.79168e-05
-7.99552e-05
-8.1887e-05
-8.37313e-05
-8.54884e-05
-8.71544e-05
-8.87184e-05
-9.01686e-05
-9.14875e-05
-9.26674e-05
-9.37097e-05
-9.46176e-05
-9.54035e-05
-9.60741e-05
-9.66259e-05
-9.70578e-05
-9.73761e-05
-9.75853e-05
-9.76833e-05
-9.76812e-05
-9.76004e-05
-9.74593e-05
-9.72744e-05
-9.70621e-05
-9.68357e-05
-4.7996e-05
-5.104e-05
-5.39204e-05
-5.66727e-05
-5.93049e-05
-6.18113e-05
-6.41851e-05
-6.64254e-05
-6.85234e-05
-7.04624e-05
-7.22399e-05
-7.38605e-05
-7.53414e-05
-7.66896e-05
-7.79004e-05
-7.89763e-05
-7.99207e-05
-8.07375e-05
-8.14263e-05
-8.19951e-05
-8.24681e-05
-8.28715e-05
-8.32238e-05
-8.35431e-05
-8.38484e-05
-0.000315102
-0.000319966
-0.000324469
-0.000328613
-0.000332408
-0.000335859
-0.000338958
-0.000341721
-0.00034416
-0.000346291
-0.000348115
-0.000349662
-0.000350964
-0.000352033
-0.000352876
-0.000353508
-0.000353947
-0.000354193
-0.000354249
-0.000354132
-0.000353872
-0.000353493
-0.00035301
-0.000352456
-0.000351848
0.000358937
0.000329977
0.00030221
0.000276097
0.000251873
0.000229632
0.000209366
0.000190964
0.000174412
0.000159548
0.000146235
0.000134292
0.000123577
0.000113909
0.000105241
9.74937e-05
9.0637e-05
8.45363e-05
7.91393e-05
7.44034e-05
7.0179e-05
6.6352e-05
6.28485e-05
5.96657e-05
5.66968e-05
-0.00457667
-0.00460294
-0.00461811
-0.00462406
-0.00462277
-0.00461598
-0.00460516
-0.00459136
-0.00457545
-0.00455816
-0.00454
-0.00452142
-0.00450279
-0.00448442
-0.00446645
-0.00444902
-0.00443234
-0.00441656
-0.00440176
-0.00438799
-0.0043753
-0.00436389
-0.00435394
-0.00434495
-0.0043359
-3.31931e-05
-2.73118e-05
-3.1394e-05
-2.82692e-05
-2.90315e-05
-2.8159e-05
-2.84596e-05
-2.82883e-05
-2.83968e-05
-2.84455e-05
-2.8606e-05
-2.8846e-05
-2.92394e-05
-2.98326e-05
-3.07047e-05
-3.19367e-05
-3.36293e-05
-3.58874e-05
-3.88232e-05
-4.25543e-05
-4.72024e-05
-5.28877e-05
-5.97326e-05
-6.78555e-05
-7.7376e-05
-8.84131e-05
-0.000101082
-0.000115499
-0.00013178
-0.000150044
-0.000170407
-0.000192999
-0.000217947
-0.000245378
-0.000275413
-0.000308199
-0.000343852
-0.000382512
-0.000424303
-0.000469342
-0.000517731
-0.000569564
-0.000624924
-0.000683852
-0.000746407
-0.000812545
-0.000882295
-0.000955551
-0.00103228
-0.00111232
-0.0011955
-0.00128169
-0.00137062
-0.00146206
-0.00155575
-0.00165139
-0.00174864
-0.00184719
-0.0019467
-0.00204685
-0.00214727
-0.00224768
-0.00234769
-0.00244697
-0.00254529
-0.00264235
-0.00273786
-0.00283158
-0.00292333
-0.00301287
-0.00310005
-0.00318476
-0.00326685
-0.00334621
-0.00342274
-0.00349636
-0.00356705
-0.00363481
-0.00369964
-0.00376155
-0.00382051
-0.00387642
-0.00392919
-0.00397873
-0.00402482
-0.00406727
-0.00410585
-0.00414048
-0.00417103
-0.00419768
-0.00422083
-0.00424094
-0.00425849
-0.00427387
-0.00428743
-0.00429951
-0.00431029
-0.00431969
-0.00432763
-7.84164e-05
-6.61059e-05
-6.78633e-05
-6.19482e-05
-6.10949e-05
-5.76096e-05
-5.59311e-05
-5.38294e-05
-5.23567e-05
-5.104e-05
-5.00981e-05
-4.94902e-05
-4.9294e-05
-4.95492e-05
-5.03207e-05
-5.16796e-05
-5.36996e-05
-5.64602e-05
-6.00439e-05
-6.4534e-05
-7.00143e-05
-7.65652e-05
-8.42578e-05
-9.31597e-05
-0.000103321
-0.000114784
-0.000127569
-0.000141678
-0.000157087
-0.000173752
-0.000191599
-0.00021053
-0.000230421
-0.000251122
-0.000272458
-0.000294233
-0.000316235
-0.000338235
-0.000359998
-0.000381286
-0.000401853
-0.000421464
-0.000439891
-0.000456921
-0.00047236
-0.000486036
-0.000497801
-0.000507532
-0.000515144
-0.000520555
-0.000523746
-0.00052472
-0.000523472
-0.000520078
-0.000514569
-0.000507073
-0.000497707
-0.000486559
-0.000473785
-0.000459539
-0.00044396
-0.000427229
-0.000409482
-0.000390891
-0.000371579
-0.000351705
-0.000331453
-0.000310936
-0.000290254
-0.000269538
-0.000248904
-0.000228375
-0.000208129
-0.000188233
-0.000168659
-0.000149552
-0.000130976
-0.000113018
-9.57817e-05
-7.9335e-05
-6.37733e-05
-4.91539e-05
-3.54901e-05
-2.29005e-05
-1.14573e-05
-1.19938e-06
7.81692e-06
1.55404e-05
2.19605e-05
2.72422e-05
3.15098e-05
3.49772e-05
3.7841e-05
4.03866e-05
4.28001e-05
4.52239e-05
4.77734e-05
5.06014e-05
5.36686e-05
-0.000136674
-0.000121704
-0.000122552
-0.000115014
-0.000113551
-0.00010931
-0.000107185
-0.000104623
-0.000102778
-0.000101116
-9.98455e-05
-9.89113e-05
-9.83696e-05
-9.82498e-05
-9.85982e-05
-9.94651e-05
-0.000100902
-0.000102954
-0.000105666
-0.000109077
-0.000113217
-0.000118104
-0.000123746
-0.000130137
-0.000137256
-0.000145066
-0.000153522
-0.000162559
-0.000172104
-0.000182074
-0.00019238
-0.000202923
-0.000213605
-0.000224323
-0.000234978
-0.000245475
-0.000255727
-0.000265653
-0.000275181
-0.000284254
-0.000292824
-0.000300845
-0.000308297
-0.000315158
-0.000321415
-0.000327075
-0.000332142
-0.000336631
-0.000340566
-0.000343972
-0.000346876
-0.000349308
-0.000351316
-0.000352923
-0.000354156
-0.000355061
-0.000355672
-0.000356018
-0.000356137
-0.000356056
-0.000355809
-0.000355415
-0.00035489
-0.000354257
-0.000353546
-0.000352769
-0.000351962
-0.000351145
-0.000350326
-0.000349509
-0.000348708
-0.000347929
-0.000347168
-0.00034643
-0.000345725
-0.000345056
-0.000344429
-0.000343852
-0.000343355
-0.000342967
-0.000342689
-0.000342505
-0.000342404
-0.000342373
-0.0003424
-0.000342491
-0.000342656
-0.000342905
-0.000343264
-0.000343758
-0.000344391
-0.000345138
-0.000345977
-0.000346875
-0.0003478
-0.000348713
-0.000349585
-0.000350407
-0.000351166
-0.000186815
-0.000171378
-0.00017112
-0.000162537
-0.00016041
-0.000155449
-0.000152793
-0.000149773
-0.000147557
-0.000145618
-0.000144125
-0.000143023
-0.000142341
-0.00014209
-0.000142294
-0.000142967
-0.000144135
-0.000145808
-0.000147994
-0.000150687
-0.000153877
-0.000157541
-0.000161645
-0.00016614
-0.000170972
-0.000176068
-0.000181355
-0.000186749
-0.00019217
-0.000197528
-0.000202744
-0.000207733
-0.000212421
-0.000216736
-0.000220617
-0.00022401
-0.000226874
-0.000229178
-0.000230902
-0.000232034
-0.000232577
-0.000232532
-0.00023192
-0.00023076
-0.000229082
-0.000226913
-0.000224294
-0.000221262
-0.000217862
-0.000214134
-0.000210124
-0.000205874
-0.000201433
-0.000196833
-0.000192114
-0.000187309
-0.000182449
-0.000177572
-0.000172703
-0.000167874
-0.000163111
-0.000158436
-0.000153863
-0.000149401
-0.000145064
-0.000140861
-0.000136803
-0.000132891
-0.000129129
-0.00012552
-0.000122072
-0.000118779
-0.000115641
-0.000112658
-0.000109827
-0.000107146
-0.000104616
-0.000102239
-0.000100029
-9.80052e-05
-9.61797e-05
-9.45443e-05
-9.30906e-05
-9.18042e-05
-9.06714e-05
-8.96821e-05
-8.88167e-05
-8.80597e-05
-8.74016e-05
-8.68457e-05
-8.63835e-05
-8.60028e-05
-8.56949e-05
-8.54399e-05
-8.52119e-05
-8.49855e-05
-8.47414e-05
-8.4468e-05
-8.41609e-05
-0.00023573
-0.000220055
-0.000219307
-0.000210139
-0.000207667
-0.000202369
-0.000199428
-0.000196183
-0.000193736
-0.000191598
-0.000189885
-0.00018854
-0.000187564
-0.000186949
-0.000186689
-0.000186779
-0.000187208
-0.000187963
-0.000189025
-0.00019036
-0.000191932
-0.000193701
-0.000195615
-0.000197615
-0.000199642
-0.00020163
-0.000203515
-0.00020524
-0.000206753
-0.000208002
-0.000208951
-0.000209565
-0.000209823
-0.000209707
-0.000209213
-0.000208342
-0.000207105
-0.000205516
-0.000203601
-0.000201382
-0.000198892
-0.00019616
-0.000193221
-0.00019011
-0.000186859
-0.000183494
-0.000180044
-0.000176533
-0.000172983
-0.000169417
-0.000165858
-0.000162324
-0.000158839
-0.000155415
-0.000152061
-0.000148781
-0.000145585
-0.000142475
-0.000139454
-0.000136526
-0.000133694
-0.000130958
-0.000128322
-0.000125784
-0.000123345
-0.000121004
-0.000118761
-0.000116614
-0.000114563
-0.000112605
-0.000110741
-0.000108969
-0.000107285
-0.000105688
-0.00010418
-0.000102758
-0.00010142
-0.000100173
-9.90251e-05
-9.79952e-05
-9.7099e-05
-9.63399e-05
-9.57078e-05
-9.51924e-05
-9.4788e-05
-9.44867e-05
-9.42801e-05
-9.41587e-05
-9.41189e-05
-9.41623e-05
-9.42887e-05
-9.44896e-05
-9.47534e-05
-9.5066e-05
-9.54028e-05
-9.57364e-05
-9.60504e-05
-9.63392e-05
-9.65979e-05
-0.000281552
-0.000265712
-0.000264674
-0.000255209
-0.00025253
-0.000247102
-0.000244009
-0.0002407
-0.000238149
-0.000235935
-0.000234112
-0.000232624
-0.000231443
-0.000230542
-0.000229892
-0.000229462
-0.00022922
-0.000229124
-0.00022914
-0.00022922
-0.000229315
-0.000229378
-0.000229359
-0.000229202
-0.000228861
-0.000228284
-0.000227432
-0.000226274
-0.000224789