/*--------------------------------*- C++ -*----------------------------------*\
  =========                 |
  \\      /  F ield         | OpenFOAM: The Open Source CFD Toolbox
   \\    /   O peration     | Website:  https://openfoam.org
    \\  /    A nd           | Version:  9
     \\/     M anipulation  |
\*---------------------------------------------------------------------------*/
FoamFile
{
    format      ascii;
    class       surfaceScalarField;
    location    "2250";
    object      phi;
}
// * * * * * * * * * * * * * * * * * * * * * * * * * * * * * * * * * * * * * //

dimensions      [0 3 -1 0 0 0 0];

internalField   nonuniform List<scalar> 
26464
(
0.00138276
0.00206483
0.00121244
0.00157256
0.000966697
0.000995019
0.000890701
1.72942e-05
0.000908429
-0.000651732
0.000968021
-0.000857721
0.00104453
-0.000804102
0.00110873
-0.000625242
0.00116093
-0.000395624
0.00112642
-2.82252e-05
0.000952564
0.000375281
0.000652131
0.000680527
0.000797252
0.000305701
0.00134291
0.00212068
0.0012671
0.00164838
0.00116639
0.00109573
0.00110644
7.7243e-05
0.00110417
-0.000649466
0.00112825
-0.000881794
0.00117053
-0.000846385
0.00118773
-0.000642445
0.00119136
-0.000399246
0.00117563
-1.24996e-05
0.00105403
0.00049688
0.000797352
0.000937207
0.00113789
0.000456713
0.00126746
0.00214999
0.0012072
0.00170864
0.00116752
0.00113541
0.00119695
4.78053e-05
0.00123571
-0.000688227
0.00125375
-0.000899835
0.00128074
-0.000873374
0.00126922
-0.000630919
0.00122649
-0.000356515
0.00119061
2.33716e-05
0.00108731
0.000600184
0.000864114
0.0011604
0.00145493
0.000547079
0.00115813
0.00216554
0.00115296
0.00171381
0.00117994
0.00110843
0.00125247
-2.47188e-05
0.00129795
-0.000733714
0.00131042
-0.000912299
0.00131975
-0.000882703
0.00128225
-0.000593423
0.00122485
-0.000299118
0.00118563
6.25936e-05
0.00106866
0.000717157
0.000845906
0.00138315
0.00174983
0.000551
0.00105725
0.00216684
0.00108812
0.00168294
0.00116799
0.00102857
0.00126977
-0.000126503
0.00131867
-0.00078261
0.00132961
-0.000923246
0.00132842
-0.000881515
0.0012913
-0.000556303
0.00123517
-0.00024298
0.00115517
0.000142595
0.000964378
0.000907946
0.000719828
0.0016277
0.00200965
0.000460009
0.000954186
0.00216408
0.00100491
0.00163222
0.00113296
0.000900513
0.00124266
-0.0002362
0.00127613
-0.000816087
0.00127785
-0.000924964
0.0012683
-0.000871958
0.00123692
-0.000524926
0.00116619
-0.000172254
0.000963211
0.000345575
0.000689115
0.00118204
0.000459844
0.00185697
0.00220321
0.000266283
0.00084535
0.00216305
0.000914171
0.0015634
0.00107187
0.000742813
0.00116496
-0.000329289
0.00116987
-0.000821001
0.00114802
-0.000903108
0.00107864
-0.000802579
0.0010103
-0.00045659
0.000859587
-2.15373e-05
0.000473119
0.000732044
0.000194371
0.00146079
5.2441e-05
0.0019989
0.00230183
-4.6178e-05
0.000730166
0.00216997
0.00080898
0.00148458
0.00097715
0.000574642
0.001039
-0.000391141
0.000998627
-0.000780625
0.00091363
-0.000818111
0.000735571
-0.000624519
0.000456172
-0.000177191
6.149e-05
0.000373144
-0.000228059
0.00102159
-0.000368601
0.00160133
-0.00040614
0.00203644
0.00231562
-0.000419925
0.000607764
0.00219191
0.000688507
0.00140384
0.000850627
0.000412522
0.000867102
-0.000407615
0.000764121
-0.000677645
0.000539333
-0.000593322
0.000151484
-0.000236671
-0.000246695
0.000220988
-0.000577995
0.000704444
-0.000767541
0.00121114
-0.000830667
0.00166446
-0.000817572
0.00202335
0.00227349
-0.000775444
0.000476842
0.00223844
0.000557419
0.00132326
0.000700149
0.000269793
0.000659647
-0.000367113
0.000451935
-0.000469933
5.2307e-05
-0.000193695
-0.000375645
0.000191282
-0.000720778
0.000566121
-0.000976116
0.000959782
-0.00111622
0.00135125
-0.00115806
0.00170629
-0.00112938
0.00199467
0.00220038
-0.00105627
0.000344378
0.00231763
0.000428469
0.00123917
0.000534127
0.000164135
0.000416107
-0.000249094
4.49748e-05
-9.88004e-05
-0.00037637
0.00022765
-0.000722224
0.000537136
-0.00100583
0.000849731
-0.00120896
0.00116291
-0.00132314
0.00146543
-0.00135594
0.0017391
-0.00132409
0.00196281
0.00212336
-0.00124707
0.000221578
0.00243467
0.000311555
0.0011492
0.000356435
0.000119255
8.21298e-05
2.52114e-05
-0.000312464
0.000295793
-0.000646479
0.000561665
-0.000929501
0.000820158
-0.00115653
0.00107676
-0.00132019
0.00132657
-0.00141523
0.00156046
-0.00144359
0.00176746
-0.00141808
0.00193731
0.00206205
-0.00135677
0.000122193
0.00258711
0.00023037
0.00104102
0.000128673
0.000220951
-0.000219884
0.000373768
-0.000527603
0.000603512
-0.000797415
0.000831477
-0.0010276
0.00105034
-0.00121102
0.00126018
-0.00134423
0.00145978
-0.00142261
0.00163884
-0.00145314
0.00179799
-0.00144141
0.00192558
0.00202655
-0.00140591
4.73497e-05
0.00277035
9.39664e-05
0.000994402
-0.000118181
0.000433099
-0.000400808
0.000656395
-0.000646671
0.000849375
-0.000866141
0.00105095
-0.00105197
0.00123617
-0.00120252
0.00141073
-0.00131086
0.00156812
-0.00138218
0.00171016
-0.00141734
0.00183314
-0.00142419
0.00193243
0.00201269
-0.00141033
-4.80285e-06
0.00297843
-7.45378e-05
0.00106414
-0.000270371
0.000628932
-0.00050481
0.000890834
-0.000705967
0.00105053
-0.000882403
0.00122738
-0.00103585
0.00138962
-0.00115916
0.00153404
-0.00125446
0.00166342
-0.00132025
0.00177595
-0.00136214
0.00187504
-0.00138316
0.00195345
0.00201984
-0.00139032
-3.35115e-05
0.0032023
-0.000213627
0.00124425
-0.000370243
0.000785548
-0.000560183
0.00108077
-0.000730092
0.00122044
-0.000874443
0.00137173
-0.0010007
0.00151588
-0.0011056
0.00163893
-0.00118851
0.00174633
-0.0012531
0.00184054
-0.00129932
0.00192126
-0.00133101
0.00198513
0.00203967
-0.00135084
-3.79183e-05
0.00343072
-0.000310214
0.00151655
-0.000439445
0.000914779
-0.000586345
0.00122767
-0.000732974
0.00136707
-0.00085318
0.00149194
-0.000958491
0.00162119
-0.00105003
0.00173048
-0.00112583
0.00182213
-0.00118691
0.00190162
-0.00123504
0.00196939
-0.00127312
0.00202322
0.00206845
-0.0013019
-1.98089e-05
0.00365104
-0.000361927
0.00185867
-0.000490742
0.00104359
-0.000595496
0.00133243
-0.000722195
0.00149377
-0.000827305
0.00159705
-0.000916646
0.00171053
-0.000996001
0.00180983
-0.0010645
0.00189062
-0.00112309
0.00196021
-0.00117112
0.00201742
-0.00121233
0.00206443
0.00210147
-0.00124534
1.67992e-05
0.00385467
-0.00037134
0.00224681
-0.000529739
0.00120199
-0.000598069
0.00140076
-0.000702532
0.00159823
-0.00079785
0.00169237
-0.000875425
0.00178811
-0.000944281
0.00187869
-0.00100752
0.00195386
-0.00106142
0.0020141
-0.00110918
0.00206518
-0.00114967
0.00210493
0.00213912
-0.00118732
6.71162e-05
0.00403577
-0.000338982
0.0026529
-0.000554929
0.00141794
-0.000602246
0.00144808
-0.000678705
0.00167469
-0.000764479
0.00177814
-0.000834977
0.0018586
-0.000896476
0.00194019
-0.00095172
0.00200911
-0.00100225
0.00206463
-0.00104729
0.00211021
-0.00108792
0.00214556
0.00217731
-0.00112611
0.000125567
0.00419187
-0.000268511
0.00304698
-0.000558031
0.00170746
-0.000611153
0.0015012
-0.00065667
0.00172021
-0.000729204
0.00185068
-0.000794911
0.00192431
-0.000848839
0.00199411
-0.000898697
0.00205897
-0.000944938
0.00211088
-0.000986565
0.00215184
-0.00102662
0.00218562
0.00221575
-0.00106507
0.000187883
0.00432196
-0.000167731
0.0034026
-0.000528782
0.00206851
-0.000619187
0.0015916
-0.000640849
0.00174187
-0.000693455
0.00190328
-0.000753007
0.00198386
-0.000803344
0.00204445
-0.000847
0.00210262
-0.000888205
0.00215208
-0.000928078
0.00219171
-0.000966259
0.0022238
0.0022534
-0.00100391
0.000249781
0.00442909
-5.26664e-05
0.00370504
-0.000457818
0.00247366
-0.000615061
0.00174884
-0.000632052
0.00175886
-0.000660351
0.00193158
-0.000709705
0.00203322
-0.00075651
0.00209126
-0.000796734
0.00214285
-0.000833719
0.00218907
-0.000869716
0.00222771
-0.000905803
0.00225988
0.00229066
-0.000943056
0.00031085
0.00451385
6.43772e-05
0.00395152
-0.000345694
0.00288373
-0.00058604
0.00198919
-0.00062693
0.00179975
-0.000634608
0.00193926
-0.000667358
0.00206597
-0.000709128
0.00213303
-0.00074625
0.00217997
-0.000779839
0.00222265
-0.000812964
0.00226084
-0.000847007
0.00229393
0.00232629
-0.000882636
0.000368877
0.00457909
0.000175638
0.00414476
-0.000202834
0.00326221
-0.000519773
0.00230613
-0.000614187
0.00189417
-0.00061647
0.00194154
-0.000629223
0.00207872
-0.000661467
0.00216527
-0.000695965
0.00221447
-0.000727054
0.00225374
-0.00075667
0.00229045
-0.000788145
0.0023254
0.00235986
-0.000821722
0.000422067
0.00462782
0.00027546
0.00429136
-4.67768e-05
0.00358444
-0.000409334
0.00266869
-0.000579595
0.00206443
-0.000601258
0.00196321
-0.000598502
0.00207597
-0.000615642
0.00218241
-0.000644936
0.00224376
-0.000674118
0.00228293
-0.000701662
0.002318
-0.000730148
0.00235389
0.00239141
-0.000761695
0.000471225
0.00466297
0.000363167
0.00439942
0.000104532
0.00384308
-0.000260099
0.00303332
-0.000509819
0.00231415
-0.000579011
0.0020324
-0.000574138
0.00207109
-0.000575159
0.00218343
-0.000594502
0.0022631
-0.000620617
0.00230904
-0.000646709
0.00234409
-0.000672887
0.00238007
0.00241956
-0.000701041
0.000515046
0.00468737
0.000437888
0.00447658
0.000239618
0.00404135
-8.84385e-05
0.00336137
-0.000396969
0.00262268
-0.000535288
0.00217072
-0.000551376
0.00208718
-0.000541255
0.00217331
-0.00054686
0.00226871
-0.000566875
0.00232906
-0.000591005
0.00236822
-0.000615135
0.0024042
0.00244539
-0.000640958
0.000553769
0.00470323
0.000501812
0.00452854
0.00035545
0.00418771
8.27816e-05
0.00363404
-0.0002436
0.00294906
-0.000456067
0.00238318
-0.000518747
0.00214986
-0.000512253
0.00216682
-0.000504614
0.00226107
-0.000514379
0.00233882
-0.000534398
0.00238824
-0.0005573
0.0024271
0.00246902
-0.00058093
0.000588523
0.00471229
0.000554419
0.00456264
0.000450257
0.00429187
0.000237212
0.00384709
-6.5969e-05
0.00325224
-0.000335544
0.00265276
-0.000462736
0.00227705
-0.000481736
0.00218582
-0.000468299
0.00224763
-0.000465354
0.00233588
-0.000478066
0.00240095
-0.000497955
0.00244699
0.00249097
-0.000519905
0.000617968
0.0047175
0.000598331
0.00458228
0.000527943
0.00436226
0.000368217
0.00400681
0.000111902
0.00350856
-0.000176479
0.00294114
-0.000371607
0.00247218
-0.000438088
0.0022523
-0.000434751
0.00224429
-0.000422081
0.00232321
-0.000423767
0.00240264
-0.000438437
0.00246166
0.00251085
-0.000458321
0.000644101
0.00471893
0.000634261
0.00459212
0.000588921
0.0044076
0.000474623
0.00412111
0.000271402
0.00371178
3.04447e-06
0.0032095
-0.000240022
0.00271525
-0.000368014
0.00238029
-0.000395802
0.00227208
-0.000383298
0.0023107
-0.000374219
0.00239356
-0.000379874
0.00246731
0.00252677
-0.000395796
0.00066641
0.0047181
0.000663426
0.0045951
0.000636532
0.00443449
0.000558611
0.00419903
0.000405422
0.00386497
0.000177977
0.00343694
-7.52122e-05
0.00296843
-0.000262452
0.00256753
-0.00033983
0.00234946
-0.000344826
0.0023157
-0.000330202
0.00237893
-0.00032514
0.00246225
0.00253564
-0.000334006
0.00068443
0.00471653
0.000686656
0.00459287
0.000673524
0.00444763
0.000623173
0.00424938
0.000512879
0.00397526
0.00033242
0.0036174
0.000100936
0.00319992
-0.000119954
0.00278842
-0.000255255
0.00248476
-0.000296588
0.00235703
-0.000289652
0.002372
-0.000276212
0.00244881
0.00253465
-0.000275225
0.000699607
0.00471372
0.000705023
0.00458746
0.000701417
0.00445123
0.000671674
0.00427913
0.000596223
0.00405071
0.00046011
0.00375351
0.000265762
0.00339427
4.61247e-05
0.00300806
-0.000134978
0.00266586
-0.0002274
0.00244945
-0.000245286
0.00238988
-0.000232643
0.00243617
0.00252416
-0.000222152
0.000708368
0.00485515
0.000711459
0.00471063
0.000718826
0.00458009
0.000721987
0.00444807
0.000707332
0.00429378
0.000658681
0.00409936
0.00056084
0.00385136
0.000407685
0.00354742
0.000212025
0.00320372
1.50586e-05
0.00286283
-0.000126721
0.00259123
-0.000186522
0.00244968
-0.000189333
0.00243898
0.0025102
-0.000175374
0.000884416
0.00679171
0.000849584
0.00648978
0.000818674
0.00620573
0.000791886
0.00593867
0.000768311
0.00568765
0.000747996
0.00545133
0.000731861
0.00523211
0.000720726
0.00503412
0.000716972
0.00485891
0.000720636
0.00470697
0.000728926
0.0045718
0.000736838
0.00444016
0.000732759
0.00429786
0.000704482
0.00412764
0.000637943
0.00391789
0.000523133
0.00366223
0.000361747
0.0033651
0.000174819
0.00304976
5.63576e-06
0.00276042
-0.000101476
0.00255679
-0.000137056
0.00247456
0.00250454
-0.000131394
0.000877796
0.00682893
0.000845183
0.00652239
0.000816214
0.0062347
0.00079059
0.00596429
0.000768927
0.00570932
0.000750553
0.0054697
0.000735685
0.00524698
0.000726345
0.00504346
0.000723102
0.00486215
0.000726789
0.00470328
0.00073636
0.00456223
0.000746455
0.00443006
0.000750448
0.00429387
0.000737087
0.004141
0.000694907
0.00396007
0.000613445
0.00374369
0.000487847
0.0034907
0.000326233
0.00321137
0.00015501
0.00293164
1.47911e-05
0.00269701
-6.31885e-05
0.00255254
0.00252282
-8.1464e-05
0.000869757
0.00686478
0.00083816
0.00655399
0.000810439
0.00626243
0.000787308
0.00598742
0.000767015
0.00572961
0.00075041
0.00548631
0.000737758
0.00525963
0.000729633
0.00505159
0.000727148
0.00486463
0.000731284
0.00469914
0.000740654
0.00455286
0.000753059
0.00441766
0.000761838
0.00428509
0.000759465
0.00414337
0.000735971
0.00398357
0.000681441
0.00379822
0.000588955
0.00358319
0.000458607
0.00334172
0.000303376
0.00308687
0.000152032
0.00284836
3.94179e-05
0.00266516
0.0025763
-1.40641e-05
0.000859423
0.00689905
0.000829043
0.00658437
0.000803231
0.00628824
0.000780865
0.00600979
0.000762943
0.00574753
0.000748172
0.00550108
0.00073706
0.00527075
0.000729912
0.00505874
0.000728376
0.00486617
0.000732556
0.00469496
0.000742623
0.00454279
0.000755994
0.00440429
0.000768599
0.00427248
0.000773911
0.00413806
0.000764199
0.00399328
0.000731022
0.0038314
0.000666608
0.0036476
0.000567499
0.00344083
0.000437632
0.00321674
0.000293678
0.00299231
0.00016384
0.00279499
0.0026629
7.72418e-05
0.000846368
0.0069319
0.00081771
0.00661303
0.000793317
0.00631263
0.000773135
0.00602997
0.000756617
0.00576405
0.000743323
0.00551437
0.000733455
0.00528061
0.000728166
0.00506402
0.000727481
0.00486686
0.000732194
0.00469025
0.000742264
0.00453273
0.000756332
0.00439022
0.000771212
0.0042576
0.000782118
0.00412716
0.000782537
0.00399286
0.000765516
0.00384842
0.000724163
0.00368896
0.000652781
0.00351221
0.000550778
0.00331874
0.000425797
0.00311729
0.00029618
0.00292461
0.00277023
0.000188847
0.000831083
0.00696384
0.000804112
0.00664
0.000781306
0.00633544
0.000762366
0.00604891
0.000747114
0.0057793
0.000735844
0.00552564
0.000727935
0.00528852
0.000723552
0.00506841
0.00072367
0.00486674
0.000729169
0.00468475
0.000739413
0.00452248
0.000754136
0.0043755
0.000770427
0.00424131
0.000784856
0.00411273
0.000792586
0.00398513
0.000787797
0.00385321
0.000764229
0.00371252
0.000716331
0.00356011
0.000640861
0.00339421
0.000539745
0.00321841
0.000422836
0.00304152
0.00288315
0.00030992
0.000844309
0.00734145
0.000813885
0.00699427
0.000787991
0.00666589
0.000766399
0.00635703
0.000749269
0.00606604
0.000735894
0.00579268
0.000725821
0.00553571
0.000719351
0.00529499
0.000716642
0.00507112
0.000717919
0.00486546
0.000723354
0.00467931
0.000734288
0.00451155
0.000748904
0.00436088
0.000766259
0.00422396
0.00078323
0.00409576
0.000796117
0.00397225
0.000800234
0.00384909
0.000790238
0.00372252
0.000761315
0.00358903
0.000708874
0.00344665
0.000631916
0.00329537
0.000534368
0.00313907
0.00298925
0.000428263
0.000822891
0.0073754
0.000794192
0.00702296
0.000769691
0.0066904
0.000749737
0.00637698
0.000733699
0.00608208
0.000721671
0.0058047
0.000713241
0.00554414
0.000708149
0.00530009
0.000706626
0.00507264
0.000708556
0.00486353
0.000715273
0.0046726
0.000726221
0.0045006
0.000741078
0.00434603
0.000758931
0.00420611
0.000777554
0.00407713
0.000793875
0.00395592
0.000804384
0.00383859
0.000804751
0.00372215
0.000790359
0.00360343
0.000757131
0.00347988
0.000702198
0.0033503
0.000625826
0.00321544
0.00308071
0.00053437
0.000799614
0.00740777
0.000771787
0.00705079
0.000748549
0.00671363
0.00073024
0.00639529
0.000715707
0.00609661
0.000705282
0.00581513
0.000698127
0.0055513
0.000694581
0.00530363
0.000693824
0.0050734
0.000697002
0.00486035
0.000704049
0.00466555
0.000715256
0.00448939
0.000730385
0.0043309
0.000748488
0.004188
0.000768126
0.0040575
0.000786924
0.00393713
0.000801857
0.00382365
0.000809748
0.00371426
0.000806494
0.00360668
0.000788431
0.00349794
0.000752266
0.00338647
0.000696404
0.0032713
0.00315438
0.000622732
0.000773316
0.00743905
0.000746955
0.00707715
0.000725531
0.00673506
0.00070793
0.00641289
0.000694864
0.00610968
0.000685569
0.00582443
0.000679854
0.00555701
0.000677447
0.00530604
0.000678058
0.00507278
0.000682157
0.00485626
0.000689823
0.00465788
0.000701395
0.00447782
0.00071632
0.00431597
0.000734986
0.00416934
0.000755048
0.00403744
0.000775372
0.0039168
0.000793508
0.00380552
0.000806773
0.003701
0.000812073
0.00360138
0.000805852
0.00350417
0.000784995
0.00340732
0.000747094
0.0033092
0.00320979
0.000691684
0.000744908
0.00746904
0.000719914
0.00710215
0.000699425
0.00675555
0.000683548
0.00642877
0.000671824
0.0061214
0.000663454
0.0058328
0.000659108
0.00556136
0.000657347
0.0053078
0.000659585
0.00507055
0.000664505
0.00485134
0.000672743
0.00464965
0.000684491
0.00446607
0.000699996
0.00430047
0.000718154
0.00415118
0.00073876
0.00401683
0.000760022
0.00389554
0.000780358
0.00378518
0.000797374
0.00368398
0.000808797
0.00358996
0.000811756
0.00350121
0.000803234
0.00341585
0.000780488
0.00333195
0.00324829
0.000741988
0.000714029
0.00749786
0.000690149
0.00712603
0.000670915
0.00677478
0.000655885
0.0064438
0.00064535
0.00613194
0.000638565
0.00583958
0.000635102
0.00556482
0.000634915
0.00530799
0.0006374
0.00506806
0.000643107
0.00484563
0.000652034
0.00464072
0.000664451
0.00445366
0.000680013
0.00428491
0.00069843
0.00413276
0.000719135
0.00399613
0.000741181
0.00387349
0.000762918
0.00376345
0.000782845
0.00366406
0.000798867
0.00357394
0.000808679
0.00349139
0.000809741
0.00341479
0.00079951
0.00334218
0.00327199
0.000775816
0.000680521
0.00752529
0.000657785
0.00714876
0.000639964
0.0067926
0.000626359
0.0064574
0.000616587
0.00614171
0.000610921
0.00584525
0.000608302
0.00556744
0.000608946
0.00530734
0.000612635
0.00506437
0.00061945
0.00483882
0.000629034
0.00463114
0.000641669
0.00444102
0.00065748
0.0042691
0.000675953
0.00411429
0.000696828
0.00397525
0.000719174
0.00385115
0.000742088
0.00374053
0.000764071
0.00364207
0.000783542
0.00355447
0.000798597
0.00347634
0.000807239
0.00340615
0.000807068
0.00334235
0.00328311
0.000795946
0.000644928
0.00755213
0.000623453
0.00717024
0.000606633
0.00680942
0.00059406
0.00646998
0.000585657
0.00615011
0.000580442
0.00585046
0.000579216
0.00556867
0.000580984
0.00530558
0.000585766
0.00505959
0.000593058
0.00483152
0.000603339
0.00462086
0.000616223
0.00442814
0.000632216
0.0042531
0.000650992
0.00409551
0.000672051
0.00395419
0.000694873
0.00382833
0.000718593
0.00371681
0.000742105
0.00361856
0.000764209
0.00353236
0.000783471
0.00345708
0.00079799
0.00339163
0.000806063
0.00333428
0.00328398
0.0008052
0.000607695
0.00757747
0.0005871
0.00719083
0.000571178
0.00682535
0.00055988
0.00648127
0.000552183
0.00615781
0.000548604
0.00585404
0.00054778
0.00556949
0.000550388
0.00530297
0.000555644
0.00505434
0.00056403
0.00482314
0.000575065
0.00460982
0.000588624
0.00441458
0.000605203
0.00423653
0.000624156
0.00407656
0.000645491
0.00393286
0.000668678
0.00380514
0.000693156
0.00369234
0.000718063
0.00359365
0.000742377
0.00350805
0.000764898
0.00343456
0.000784299
0.00337223
0.000798858
0.00331973
0.00327608
0.000806759
0.000568442
0.00760174
0.000548958
0.00721032
0.000534224
0.00684008
0.00052349
0.00649201
0.000517057
0.00616425
0.00051418
0.00585692
0.00051481
0.00556887
0.000518471
0.00529931
0.00052459
0.00504822
0.000533496
0.00481423
0.000545073
0.00459825
0.000559757
0.00439989
0.000576387
0.0042199
0.000595893
0.00405705
0.0006177
0.00391105
0.000641433
0.00378141
0.000666684
0.00366709
0.000692874
0.00356747
0.000719133
0.00348179
0.000744686
0.00340901
0.000768174
0.00334874
0.000788303
0.0032996
0.00326083
0.000803562
0.000528257
0.00762535
0.000509849
0.00722873
0.000495885
0.00685405
0.000486376
0.00650152
0.000480886
0.00616974
0.000479037
0.00585877
0.000480376
0.00556753
0.000484538
0.00529515
0.000492175
0.00504059
0.00050199
0.00480442
0.000514457
0.00458578
0.000529085
0.00438527
0.000546715
0.00420227
0.000566976
0.00403679
0.000589391
0.00388864
0.000613988
0.00375681
0.000640305
0.00364077
0.000667945
0.00353982
0.000696308
0.00345343
0.000724598
0.00338072
0.000752024
0.00332131
0.000777376
0.00327426
0.00323891
0.000799307
0.000487512
0.00764768
0.000470074
0.00724616
0.000457235
0.00686689
0.00044858
0.00651017
0.000444043
0.00617428
0.000442849
0.00585996
0.000445274
0.0055651
0.000450938
0.00528948
0.000458844
0.00503268
0.000469691
0.00479357
0.000482902
0.00457257
0.000498979
0.00436919
0.000517406
0.00418384
0.000538437
0.00401576
0.000561944
0.00386513
0.000587765
0.00373099
0.000615634
0.0036129
0.000645162
0.0035103
0.000676013
0.00342258
0.000707558
0.00334917
0.000739081
0.00328979
0.000769641
0.0032437
0.00321049
0.000798063
0.000447835
0.00766911
0.000431107
0.00726289
0.000419018
0.00687898
0.000411578
0.00651761
0.000407987
0.00617787
0.000408171
0.00585978
0.000411068
0.00556221
0.000417321
0.00528323
0.000426604
0.0050234
0.000438609
0.00478157
0.000453162
0.00455802
0.000470051
0.0043523
0.000490133
0.00416377
0.000512285
0.00399361
0.000537526
0.0038399
0.000565245
0.00370327
0.000595398
0.00358275
0.000627808
0.00347789
0.000662037
0.00338835
0.000697578
0.00331364
0.000733835
0.00325353
0.000770068
0.00320749
0.00317549
0.000805089
0.000409779
0.00768984
0.000394469
0.0072782
0.000383625
0.00688982
0.000377127
0.00652411
0.000374239
0.00618076
0.000375215
0.00585881
0.00037974
0.00555769
0.000387149
0.00527583
0.000397761
0.00501279
0.00041071
0.00476862
0.00042705
0.00454169
0.000446019
0.00433334
0.000467511
0.00414228
0.00049269
0.00396844
0.000520206
0.00381239
0.000551018
0.00367246
0.000584719
0.00354906
0.000621041
0.00344157
0.000659761
0.00334964
0.000700374
0.00327302
0.000742344
0.00321157
0.000784683
0.00316514
0.0031336
0.000826569
0.000376401
0.00770902
0.000362468
0.00729214
0.000352737
0.00689955
0.000347425
0.00652943
0.000346147
0.00618204
0.000348231
0.00585672
0.000354071
0.00555185
0.000363065
0.00526683
0.000375298
0.00500056
0.000390868
0.00475306
0.000408927
0.00452363
0.000431036
0.00431123
0.000456098
0.00411722
0.000484
0.00394054
0.000516156
0.00378023
0.000551421
0.0036372
0.000590069
0.00351041
0.000631792
0.00339984
0.000676249
0.00330518
0.000722985
0.00322629
0.00077124
0.00316331
0.000820249
0.00311615
0.00308499
0.000868881
0.000350232
0.00772654
0.000337479
0.00730489
0.000330002
0.00690703
0.000326354
0.00653307
0.000326198
0.00618219
0.000330652
0.00585227
0.000338232
0.00554427
0.000349706
0.00525536
0.000364931
0.00498534
0.000383363
0.00473462
0.000406192
0.0045008
0.000431669
0.00428575
0.000461668
0.00408722
0.000495742
0.00390646
0.000533178
0.00374279
0.000574637
0.00359573
0.000619772
0.00346527
0.000668233
0.00335138
0.000719498
0.00325391
0.000772823
0.00317296
0.000827508
0.00310863
0.000882604
0.00306102
0.00303043
0.00093713
0.00034832
0.00819401
0.00033336
0.0077415
0.00032345
0.00731479
0.000317641
0.00691283
0.000316416
0.00653429
0.000319611
0.00617899
0.000326171
0.0058457
0.000337346
0.00553309
0.000352728
0.00523997
0.000371857
0.0049662
0.000395877
0.0047106
0.000423734
0.00447294
0.000456209
0.00425327
0.00049283
0.00405059
0.000533731
0.00386555
0.000579079
0.00369744
0.000628302
0.00354651
0.000681114
0.00341246
0.000736941
0.00329555
0.000795098
0.00319576
0.000854753
0.0031133
0.000914975
0.0030484
0.000974817
0.00300118
0.0029719
0.00103335
0.000340866
0.00821259
0.000328495
0.00775386
0.000321642
0.00732163
0.000319778
0.00691469
0.000321826
0.00653223
0.000328399
0.00617241
0.000339947
0.00583414
0.000356161
0.00551687
0.000377042
0.00521908
0.000403115
0.00494012
0.000433946
0.00467975
0.000469647
0.00443723
0.0005103
0.0042126
0.000555585
0.0040053
0.00060565
0.00381547
0.000659862
0.00364322
0.000717697
0.00348866
0.000778428
0.00335172
0.000841276
0.00323269
0.000905376
0.00313165
0.000969738
0.00304893
0.00103338
0.00298476
0.00109532
0.00293923
0.00291247
0.00115474
0.000361643
0.00872024
0.000346193
0.00822803
0.000337085
0.00776296
0.000334491
0.00732422
0.000336757
0.00691241
0.000344172
0.00652481
0.000356533
0.00616004
0.000374066
0.0058166
0.000397172
0.00549374
0.000426153
0.00519008
0.000460553
0.0049057
0.00050077
0.00463952
0.000546403
0.00439158
0.000597678
0.00416132
0.000653341
0.00394962
0.000713234
0.00375557
0.000776494
0.00357995
0.00084257
0.00342258
0.000910282
0.00328399
0.000978618
0.00316435
0.00104636
0.00306389
0.00111266
0.00298261
0.00117643
0.00292098
0.00123686
0.00287877
0.00285611
0.00129318
0.000376881
0.00874039
0.000364258
0.00824064
0.000359589
0.00776761
0.000361691
0.0073221
0.000369595
0.00690449
0.000383381
0.00651101
0.000403234
0.00614016
0.000429316
0.0057905
0.000461964
0.00546108
0.000501035
0.005151
0.000546536
0.00486018
0.000597997
0.00458805
0.000655127
0.00433443
0.000717071
0.00409937
0.00078314
0.00388353
0.00085251
0.00368619
0.000924225
0.00350821
0.000996712
0.00335008
0.00106887
0.00321181
0.00113953
0.00309369
0.00120765
0.00299576
0.001272
0.00291826
0.00133198
0.00286099
0.00138694
0.00282379
0.00280676
0.00143624
0.0004043
0.00875754
0.000395033
0.00824989
0.000394381
0.00776824
0.00040178
0.00731469
0.000416473
0.00688977
0.000438673
0.0064888
0.000467757
0.00611106
0.000504597
0.00575365
0.000548942
0.00541671
0.000600041
0.00509989
0.000657902
0.00480231
0.000721699
0.00452424
0.000790386
0.00426573
0.000863037
0.00402671
0.000938791
0.00380776
0.00101586
0.00360912
0.00109301
0.00343105
0.00116882
0.00327427
0.00124187
0.00313876
0.00131093
0.00302462
0.00137502
0.00293165
0.00143343
0.00285983
0.00148553
0.00280889
0.00153083
0.00277841
0.00276812
0.00156937
0.000441234
0.00877189
0.000435642
0.00825548
0.000439079
0.00776478
0.000451873
0.00730189
0.000474824
0.0068668
0.000506419
0.00645719
0.000547237
0.00607022
0.00059665
0.00570423
0.00065359
0.00535976
0.000718134
0.00503534
0.000788594
0.00473183
0.000864277
0.00444856
0.000943884
0.00418611
0.00102573
0.00394486
0.00110836
0.00372513
0.00118981
0.00352766
0.00126878
0.00335208
0.00134364
0.00319941
0.00141304
0.00306934
0.00147614
0.00296153
0.00153207
0.00287571
0.00158031
0.0028116
0.00162079
0.00276839
0.00165335
0.00274588
0.00274347
0.00167799
0.000485412
0.00878334
0.000482473
0.0082584
0.000490361
0.00775687
0.000509878
0.00728236
0.000540947
0.00683572
0.000584091
0.00641404
0.00063778
0.00601652
0.000700657
0.00564135
0.000771561
0.00528884
0.000849015
0.00495789
0.000931999
0.00464884
0.001018
0.00436256
0.00110618
0.00409792
0.00119392
0.00385712
0.0012793
0.00363974
0.00136121
0.00344575
0.00143729
0.00327599
0.00150649
0.00313022
0.00156795
0.00300789
0.00162072
0.00290876
0.00166448
0.00283196
0.00169923
0.00277683
0.00172496
0.00274268
0.00174198
0.00272874
0.00273453
0.00175078
0.000531573
0.00879185
0.000531953
0.00825801
0.000544419
0.00774439
0.000570947
0.00725582
0.000612816
0.00679383
0.00066814
0.00635871
0.000735563
0.00594908
0.000812075
0.00556483
0.000896154
0.00520475
0.000985585
0.00486844
0.00107804
0.00455637
0.00117233
0.00426826
0.00126457
0.00400567
0.00135381
0.00376788
0.00143818
0.00355537
0.00151513
0.0033688
0.00158351
0.0032076
0.0016426
0.00307114
0.00169156
0.00295892
0.00173025
0.00287009
0.00175866
0.00280354
0.00177714
0.00275837
0.00178613
0.00273369
0.00178621
0.00272872
0.00274275
0.00177803
0.00057443
0.00879799
0.000578538
0.00825389
0.000596482
0.00772643
0.000632476
0.00721982
0.000685817
0.00674048
0.000754913
0.00628961
0.000835612
0.00586838
0.000925472
0.00547497
0.00102117
0.00510905
0.00112017
0.00476945
0.00121946
0.00445708
0.00131658
0.00417115
0.00140943
0.00391281
0.00149566
0.00368166
0.00157285
0.00347817
0.00164027
0.00330141
0.00169653
0.00315135
0.00174132
0.00302637
0.00177439
0.00292586
0.0017961
0.00284841
0.00180689
0.00279279
0.00180725
0.00275798
0.00179819
0.00274281
0.00178037
0.00274638
0.0027685
0.00175443
0.00060842
0.00880036
0.000616813
0.0082455
0.000642827
0.00770042
0.000689839
0.00717281
0.000756624
0.00667369
0.000839325
0.0062069
0.000933132
0.00577456
0.00103418
0.00537392
0.00113873
0.00500449
0.00124318
0.004665
0.00134478
0.00435547
0.00144063
0.00407531
0.00152836
0.00382508
0.00160565
0.00360437
0.00167127
0.00341256
0.00172432
0.00324836
0.00176421
0.00311146
0.00179111
0.00299948
0.00180535
0.00291165
0.00180777
0.00284601
0.00179917
0.00280139
0.00178057
0.00277664
0.00175288
0.0027705
0.00171708
0.00278234
0.00281203
0.00167367
0.00062415
0.00879962
0.000639959
0.00822969
0.0006777
0.00766268
0.000739223
0.00711129
0.000820965
0.00659196
0.000917364
0.00611051
0.0010226
0.00566935
0.00113163
0.0052649
0.00124101
0.00489513
0.00134649
0.00455953
0.00144541
0.00425657
0.00153421
0.00398652
0.00161121
0.00374811
0.00167496
0.00354063
0.00172449
0.00336304
0.00175913
0.00321373
0.00177913
0.00309147
0.00178537
0.00299326
0.00177902
0.00291801
0.00176071
0.00286434
0.00173195
0.00283018
0.00169323
0.00281534
0.00164686
0.00281692
0.00159223
0.00283682
0.00287293
0.00153119
0.000616824
0.00879352
0.000643465
0.00820308
0.000697194
0.00760899
0.000776294
0.00703221
0.000874356
0.00649394
0.000982564
0.00600233
0.00109658
0.00555536
0.00121034
0.00515117
0.00131974
0.00478576
0.00142089
0.00445839
0.00151049
0.00416701
0.0015869
0.00391013
0.00164783
0.00368721
0.00169313
0.00349536
0.00172162
0.00333459
0.00173387
0.0032015
0.0017319
0.00309347
0.00171522
0.00300996
0.00168605
0.00294721
0.00164619
0.00290423
0.00159601
0.00288038
0.00153788
0.00287355
0.00147157
0.00288323
0.00139889
0.00290976
0.00295294
0.00131919
0.000581717
0.0087788
0.000625289
0.00815952
0.000700261
0.00753405
0.000799311
0.00693318
0.000912656
0.00638062
0.00103193
0.00588307
0.00115033
0.005437
0.00126373
0.00503778
0.00136712
0.0046824
0.00145817
0.00436736
0.00153358
0.00409162
0.00159147
0.00385225
0.00163198
0.00364674