/*--------------------------------*- C++ -*----------------------------------*\
  =========                 |
  \\      /  F ield         | OpenFOAM: The Open Source CFD Toolbox
   \\    /   O peration     | Website:  https://openfoam.org
    \\  /    A nd           | Version:  9
     \\/     M anipulation  |
\*---------------------------------------------------------------------------*/
FoamFile
{
    format      ascii;
    class       volScalarField;
    location    "2250";
    object      ReThetat;
}
// * * * * * * * * * * * * * * * * * * * * * * * * * * * * * * * * * * * * * //

dimensions      [0 0 0 0 0 0 0];

internalField   nonuniform List<scalar> 
13354
(
579.667
576.054
568.578
558.291
552.611
559.913
570.258
578.628
583.527
584.764
583.747
583.701
578.81
560.758
555.612
550.608
545.114
546.699
558.656
571.585
580.507
585.305
587.206
586.442
586.32
577.617
552.314
544.062
539.939
536.675
542.55
558.595
573.465
581.945
585.556
587.484
587.659
587.999
578.328
549.839
538.112
533.393
531.373
541.342
560.744
576.423
583.468
585.478
586.959
587.744
588.832
580.119
551.014
536.029
530.303
529.451
543.445
565.138
580.286
584.857
584.903
585.789
587.384
589.944
581.108
554.259
536.687
530.475
531.61
548.656
571.448
584.73
586.158
584.104
584.952
587.392
589.866
577.609
558.606
539.281
533.293
536.985
556.108
578.457
588.999
586.484
582.969
583.39
584.336
584.407
575.22
563.517
543.121
537.683
543.28
563.676
584.958
592.571
586.594
581.776
578.153
578.871
582.086
593.594
568.507
547.511
542.659
549.625
570.791
590.863
595.818
586.877
580.463
582.485
589.236
602.565
626.716
573.3
551.859
547.457
555.758
577.595
596.318
598.74
596.473
598.062
604.353
615.957
632.63
653.409
577.553
555.979
552.039
561.449
582.729
603.724
608.733
611.739
617.094
626.044
638.097
651.57
664.446
581.775
559.757
555.084
565.639
593.783
604.575
610.526
616.817
624.617
634.271
644.882
654.944
663.397
585.894
562.669
560.709
576.873
588.192
596.214
603.981
612.145
621.012
630.675
640.464
649.507
657.452
590.455
564.2
563.367
571.553
578.772
586.506
594.809
603.681
612.924
622.678
632.621
642.326
651.545
595.883
564.229
562.183
566.478
572.002
579.17
587.291
596.187
605.507
615.443
625.951
636.78
647.523
602.624
564.557
562.813
564.535
568.469
575.046
582.837
591.465
600.595
610.628
621.619
633.406
645.394
611.062
566.288
564.978
565.101
567.519
573.374
580.982
589.351
598.18
607.995
619.081
631.546
644.359
620.971
569.736
567.118
566.977
568.261
573.144
580.673
588.799
597.279
606.872
617.957
630.642
643.561
632.197
575.572
568.409
569.203
569.584
573.679
580.938
588.836
596.982
606.296
617.247
629.806
642.362
644.087
584.751
569.135
570.804
571.488
574.75
581.278
588.819
596.649
605.632
616.291
628.457
640.429
655.883
597.485
570.779
571.077
573.113
576.1
581.617
588.515
595.99
604.615
614.827
626.39
637.682
667.391
613.13
575.795
570.799
573.652
577.357
582.075
588.038
594.981
603.21
612.866
623.68
634.259
675.312
630.512
585.576
571.401
573.111
577.794
582.531
587.667
593.821
601.506
610.543
620.548
630.391
679.167
646.788
600.733
575.073
572.047
576.93
582.623
587.479
592.745
599.639
607.964
617.146
626.237
676.223
659.763
619.469
584.089
573.638
575.71
581.641
587.076
591.889
597.802
605.203
613.471
621.757
659.631
666.866
638.394
598.765
578.076
574.673
579.593
586.115
591.21
596.248
602.407
609.505
616.843
645.693
668.613
653.637
617.557
587.694
577.481
577.695
584.091
590.117
594.915
599.769
605.397
611.578
634.369
662.643
664.247
638.047
602.994
583.439
577.118
581.067
588.154
593.475
597.483
601.547
606.43
624.619
642.822
669.878
655.974
622.896
595.03
582.514
579.851
585.148
591.564
595.627
598.549
602.137
615.727
624.859
664.237
668.1
643.979
611.997
591.529
581.041
581.605
588.273
593.376
596.343
599.137
607.254
611.124
652.331
671.975
661.158
632.593
605.952
589.608
581.473
584.837
590.337
594.313
597.258
599.064
600.35
626.155
670.299
674.259
654.008
624.963
602.508
585.835
582.692
586.776
591.955
595.993
591.266
591.653
606.574
659.261
678.654
671.005
646.501
620.318
599.272
585.245
583.315
588.168
593.886
584.074
584.447
592.753
645.633
677.122
682.746
667.417
642.034
617.169
599.21
585.654
585.071
590.648
577.875
578.415
582.969
614.139
663.779
684.69
682.857
664.558
638.801
616.624
594.14
584.672
587.125
569.243
572.628
573.604
576.126
593.947
648.09
681.111
691.665
683.731
662.495
637.953
614.11
591.199
584.533
563.207
562.729
562.436
562.056
561.635
561.345
562.157
563.788
564.986
568.501
569.807
571.371
581.228
613.569
665.726
690.443
695.78
684.289
662.43
637.367
613.124
590.409
563.842
563.254
562.816
562.282
561.689
561.262
561.74
562.51
563.237
565.601
566.976
568.15
573.543
592.182
648.727
684.624
700.992
700.518
685.965
663.488
638.174
614.605
564.909
564.303
563.791
563.193
562.522
562.096
562.462
562.714
562.591
563.837
565.08
566.105
569.126
579.395
612.645
667.386
699.365
710.651
705.648
689.257
665.679
640.832
566.047
565.465
564.906
564.288
563.568
563.198
563.553
563.444
562.61
563.017
564.04
564.988
566.79
572.228
590.911
631.15
681.288
708.301
717.691
711.942
694.087
669.81
567.2
566.665
566.078
565.468
564.712
564.424
564.803
564.411
563.05
562.914
563.724
564.598
565.765
568.527
578.459
602.535
658.602
698.92
719.854
726.314
718.837
699.89
568.35
567.859
567.262
566.684
565.899
565.701
566.1
565.451
563.733
563.31
563.964
564.748
565.558
566.881
571.749
585.285
619.409
677.168
712.862
731.711
735.786
726.351
570.331
569.466
569.037
568.434
567.898
567.091
566.98
567.368
566.462
564.528
564.012
564.582
565.267
565.843
566.396
568.434
575.498
595.157
637.371
689.776
725.758
744.579
746.348
571.29
570.525
570.172
569.577
569.085
568.262
568.227
568.56
567.39
565.352
564.865
565.412
565.996
566.398
566.529
567.037
570.295
581.066
606.28
664.091
705.084
738.695
756.902
572.788
571.513
571.236
570.686
570.229
569.395
569.421
569.652
568.215
566.158
565.759
566.322
566.808
567.072
566.958
566.667
567.782
573.301
587.64
621.875
676.736
723.338
753.373
574.898
572.686
572.22
571.748
571.324
570.483
570.551
570.637
568.947
566.926
566.631
567.215
567.612
567.77
567.505
566.811
566.774
569.295
577.063
596.457
631.667
694.685
738.517
577.647
574.446
573.126
572.754
572.365
571.526
571.614
571.515
569.602
567.653
567.458
568.051
568.369
568.447
568.081
567.191
566.569
567.438
571.363
581.889
602.65
645.681
707.606
581.106
576.867
574.588
573.684
573.332
572.524
572.607
572.294
570.2
568.339
568.239
568.822
569.072
569.087
568.645
567.665
566.77
566.768
568.507
573.87
585.655
611.41
657.86
585.367
579.984
576.731
574.934
574.23
573.468
573.527
572.986
570.756
568.989
568.978
569.534
569.73
569.692
569.184
568.164
567.159
566.726
567.265
569.685
576.11
591.053
619.429
590.5
583.851
579.538
576.831
575.227
574.367
574.373
573.603
571.281
569.609
569.685
570.203
570.357
570.269
569.696
568.656
567.624
566.994
566.894
567.684
571.01
579.481
596.209
596.519
588.503
583.009
579.318
576.765
575.223
575.138
574.16
571.78
570.205
570.369
570.846
570.969
570.826
570.187
569.135
568.112
567.404
566.961
566.852
568.453
573.182
582.747
603.371
593.915
587.125
582.327
578.79
576.471
575.852
574.667
572.255
570.786
571.04
571.477
571.581
571.382
570.673
569.613
568.62
567.894
567.256
566.632
567.277
569.92
575.259
610.912
599.985
591.811
585.8
581.222
578.11
576.659
575.144
572.713
571.367
571.703
572.104
572.194
571.942
571.172
570.103
569.141
568.431
567.695
566.78
566.874
568.368
571.311
618.866
606.497
596.907
589.632
583.99
580.045
577.754
575.622
573.158
571.964
572.373
572.743
572.813
572.489
571.654
570.584
569.646
568.943
568.159
567.089
566.864
567.7
569.285
626.773
613.062
602.124
593.633
586.962
582.167
579.05
576.29
573.607
572.579
573.056
573.414
573.463
573.043
572.098
570.994
570.086
569.378
568.483
567.311
566.935
567.356
568.225
633.946
619.088
606.999
597.47
589.879
584.269
580.387
577.044
574.07
573.204
573.72
574.09
574.138
573.635
572.579
571.4
570.453
569.746
568.743
567.412
566.998
567.372
567.853
639.52
623.797
610.916
600.655
592.351
586.023
581.519
577.745
574.568
573.854
574.367
574.719
574.736
574.17
573.071
571.855
570.835
570.029
569.029
567.772
567.263
567.738
568.451
642.79
626.393
613.216
602.623
593.861
587.068
582.157
578.203
575.08
574.536
575.029
575.354
575.246
574.514
573.342
572.118
571.083
570.224
569.188
568.182
568.001
568.737
569.967
661.495
643.293
626.599
613.463
602.898
594.041
587.079
582.251
578.32
575.539
575.157
575.648
575.977
575.791
574.835
573.371
572.099
571.198
570.431
569.497
568.977
569.593
571.438
574.073
659.128
641.105
624.384
611.603
601.441
592.837
586.308
581.935
578.549
576.003
575.656
576.057
576.381
576.143
575.193
573.72
572.317
571.623
571.427
571.068
571.574
573.929
577.367
582.057
702.637
659.053
637.256
620.381
608.174
598.663
590.876
585.213
581.78
578.868
576.521
576.172
576.369
576.467
576.064
575.073
574
573.31
572.899
573.548
575.301
577.431
581.746
589.064
596.193
703.953
658.557
632.65
615.539
604.011
595.487
588.819
584.458
581.756
579.113
576.977
576.59
576.792
576.749
575.988
574.827
574.2
574.691
576.117
577.859
581.741
588.531
595.788
606.483
622.017
706.878
657.471
628.083
610.699
599.959
592.634
587.356
584.041
581.765
579.227
577.173
576.701
576.85
577.166
576.896
576.045
576.275
578.427
582.256
588.053
595.713
606.306
621.615
638.762
659.572
709.548
656.665
624.135
606.342
596.614
590.696
586.573
583.938
581.855
579.488
577.529
576.725
576.803
577.116
577.917
579.775
581.963
586.38
594.537
605.909
619.727
637.255
658.993
684.145
716.741
712.45
656.854
620.99
602.69
594.164
589.77
586.334
584.092
582.134
579.803
578.272
577.725
577.797
578.631
580.658
585.342
593.145
601.123
613.486
634.369
655.467
679.742
714.815
747.983
785.526
715.98
657.88
618.506
599.931
592.937
589.445
586.315
584.263
582.261
580.167
579.001
579.404
581.419
584.233
589.237
597.578
610.246
628.882
647.507
673.492
711.601
744.675
782.554
841.578
878.046
720.154
658.633
616.147
597.985
592.391
589.211
586.326
584.267
582.571
580.876
580.865
582.568
587.132
595.879
605.454
619.299
640.549
667.715
704.694
739.813
780.041
838.946
876.715
915.53
945.446
724.251
657.576
613.63
597.16
592.268
589.092
586.493
584.872
583.766
583.931
585.318
589.97
598.605
612.723
634.38
655.416
684.103
727.199
773.339
821.549
874.052
914.785
944.907
973.398
997.336
726.19
653.352
610.949
597.174
592.652
589.472
587.461
586.823
587.569
590.044
596.217
603.801
618.493
642.436
673.968
717.937
755.348
801.173
870.714
912.792
946.054
973.582
996.809
1019.11
1038.3
723.336
646.061
608.772
597.805
593.639
590.843
590.054
590.924
594.5
601.903
613.206
632.34
653.076
687.234
737.331
791.367
861.744
904.443
947.303
978.436
1000.5
1019.48
1037.59
1055.69
1071
713.909
637.309
607.659
599.085
595.428
593.892
593.976
598.503
606.179
619.963
642.695
672.351
719.064
762.41
818.448
894.715
944.47
976.748
1005.39
1027.12
1041.43
1054.94
1069.41
1084.21
1096.15
699.263
629.939
607.934
601.084
598.694
597.952
601.963
609.091
626.881
649.999
684.572
737.829
798.384
882.454
929.018
972.881
1005.39
1028.72
1048.91
1063.52
1072.14
1081.87
1093.54
1105.67
1114.63
683.053
625.699
609.604
604.901
603.149
606.254
613.842
635.216
660.626
704.507
754.374
819.253
912.726
971.471
1004.07
1029.78
1050.17
1066.16
1079.96
1088.5
1092.62
1099.55
1108.84
1118.65
1124.79
670.851
625.916
614.093
609.809
611.998
619.02
642.414
676.643
730.464
783.341
858.663
934.243
995.476
1033.87
1053.58
1067.9
1080.56
1091.52
1100.33
1103.03
1103.39
1108.16
1115.58
1123.36
1126.65
665.854
630.121
621.644
620.121
625.404
648.988
686.976
750.371
816.9
912.694
964.168
1012.47
1052.46
1075.8
1085.3
1091.89
1098.24
1103.21
1105.91
1103.07
1100.79
1103.76
1109.32
1114.93
1115.89
671.947
642.638
636.5
637.539
656.815
695.556
764.415
841.469
944.442
1000.15
1032.76
1064.31
1088.06
1097.06
1097.71
1099.07
1101.12
1101.24
1097.59
1089.89
1085.64
1087.12
1091.18
1095.24
1094.94
688.683
662.726
660.366
673.412
705.723
777.534
862.608
971.881
1028.47
1056.45
1073.37
1091.03
1102.25
1101.27
1095.58
1090.55
1083.93
1075.08
1066.07
1055.72
1051.39
1052.65
1056.51
1060.58
1060.77
726.498
701.908
702.773
727.577
792.398
882.142
998.652
1056.62
1079.76
1086.23
1091.89
1097.39
1093.41
1079.12
1067.41
1057.82
1046.65
1034.31
1023.75
1012.24
1007.6
1007.65
1010.28
1013.59
1013.8
780.61
756.603
766.259
820.661
903.942
1027.14
1087.09
1108.32
1104.78
1093.24
1083.45
1075.54
1061.69
1041.39
1024.44
1004.55
981.034
963.84
951.684
940.249
936.31
936.69
939.909
944.42
946.437
874.534
850.72
866.634
939.419
1057.76
1119.71
1142.35
1134.85
1107.02
1076.68
1056.39
1035.54
1002.77
971.216
949.486
927.289
904.593
888.345
874.621
860.365
852.756
849.345
849.81
853.132
856.268
982.69
960.848
990.405
1091.85
1151.48
1176.14
1174.41
1143.37
1093.05
1044.78
1002.51
968.363
931.107
897.142
863.907
819.951
781.912
761.34
748.136
738.835
735.721
736.67
741.1
748.2
756.16
1141.13
1118.15
1132.74
1179.96
1205.45
1208.99
1192.36
1141.97
1067.05
996.172
942.566
890.267
820.441
774.699
744.196
717.243
696.517
684.344
676.595
672.003
671.861
674.817
680.556
688.596
697.85
1227.83
1205.21
1209.39
1228.91
1235.4
1228.26
1203.2
1135.37
1033.8
939.344
850.467
791.122
742.292
709.851
687.788
670.415
657.506
649.182
643.579
640.454
640.802
643.672
648.933
656.291
664.987
1274.48
1252.42
1250.26
1256
1251.94
1240.22
1210.8
1128.19
996.094
877.623
801.236
751.556
714.406
688.515
669.893
655.5
644.661
636.857
631.044
627.449
626.851
628.524
632.431
638.354
645.669
1299.79
1278.56
1272.87
1271.49
1261.35
1248.43
1217.63
1125.27
973.677
864.841
797.24
751.19
717.448
692.501
673.482
658.498
646.659
637.406
629.971
624.748
622.367
622.205
624.255
628.341
633.875
1314.16
1294.05
1286.6
1280.85
1267.22
1255.11
1226.6
1137.08
991.376
889.284
822.588
775.526
739.951
712.72
691.057
673.276
658.798
646.845
636.742
629.102
624.293
621.752
621.519
623.429
626.9
1323.14
1304.31
1296.04
1286.89
1271.46
1261.16
1238.64
1164.86
1037.25
937.734
868.828
817.039
777.512
745.971
719.847
698.171
679.82
664.091
650.543
639.724
631.804
626.312
623.29
622.629
623.737
1329.35
1311.94
1303.23
1291
1274.9
1266.51
1251.62
1199.51
1098.26
1003.32
929.827
873.346
828.081
791.021
759.801
732.965
709.839
689.621
671.722
656.94
645.222
636.06
629.645
625.898
624.243
1333.94
1318
1308.99
1293.8
1277.82
1270.99
1262.79
1230.52
1161.55
1076.2
1003.11
941.187
890.85
848.26
810.626
778.382
749.974
724.205
701.286
681.831
665.395
651.804
641.249
633.737
628.796
1337.38
1323.23
1313.59
1295.61
1280.35
1274.71
1270.87
1251.92
1209.78
1149.49
1080.28
1018.72
964.662
915.987
873.296
835.209
800.578
769.172
740.602
715.445
693.55
674.672
659.12
647.104
638.201
1339.87
1328.08
1317.09
1296.86
1282.53
1277.79
1275.98
1264.53
1238.88
1201.87
1154.22
1098.08
1044.3
993.975
945.81
902.265
862.573
825.047
790.089
758.995
730.937
706.005
684.767
667.343
653.722
1341.11
1332.48
1319.42
1297.74
1284.32
1280.39
1279.52
1271.42
1253.8
1231.05
1202.91
1167.43
1125.61
1074.05
1025.4
979.346
933.98
890.869
850.331
812.924
778.573
747.461
719.643
696.021
676.801
1341.25
1336.43
1320.7
1298.45
1285.89
1282.67
1282.19
1274.83
1260.65
1244.52
1227.83
1208.47
1183.68
1148.48
1105.86
1057.71
1011.86
965.959
919.389
876.959
837.419
799.542
765.001
734.607
709.064
1337.93
1338.07
1319.83
1298.23
1286.53
1284.09
1283.86
1276.34
1263.12
1249.34
1238.03
1227.85
1214.64
1192.99
1163.54
1128.54
1088.91
1040.57
993.152
949.029
904.115
861.06
820.631
783.647
751.808
1337.02
1340.99
1320.09
1299.41
1288.34
1286.42
1286.33
1278.1
1264.34
1251.29
1242.19
1236.8
1229.7
1215.55
1194.87
1170.53
1142.39
1106.17
1065.79
1020.78
976.411
931.76
886.807
844.895
806.582
1316.07
1329.83
1310.88
1293.49
1284.16
1283.29
1283.64
1274.85
1260.14
1246.42
1238.03
1235
1230.67
1219.78
1203.26
1184.61
1163.53
1135.68
1104.99
1074.5
1039.01
997.532
955.329
912.009
871.054
1341.71
1352.58
1327.51
1307.92
1297.01
1294.21
1292.84
1282.45
1266.57
1253.05
1245.66
1244.26
1241.16
1231.54
1216.85
1200.54
1182
1157.99
1133.63
1113.34
1092.23
1066.74
1034.2
989.215
945.102
1114.38
1238.05
1268.64
1274.05
1276.9
1283.57
1286.23
1275.9
1257.18
1240.51
1232.44
1231.99
1229.95
1220.4
1205.56
1189.92
1173.16
1151.33
1130.28
1116.47
1105.95
1096.03
1084.7
1068.6
1045.81
1207.63
1223.21
1235.19
1238.87
1239.53
1237.48
1232.41
1225.14
1218
1212.66
1208.76
1204.49
1198.37
1190.47
1181.68
1172.43
1162.52
1152.24
1143.23
1136.05
1129.72
1123.82
1117.64
1110.39
1101.44
1084.11
1157.29
1243.08
1209.83
1210.52
1208.75
1207.52
1206.48
1205.57
1204.76
1204.02
1203.32
1202.63
1201.94
1201.24
1200.51
1199.73
1198.89
1197.97
1196.96
1195.84
1194.61
1193.26
1191.78
1190.18
1188.44
1186.55
1184.51
1182.32
1179.97
1177.47
1174.81
1171.99
1169.01
1165.85
1162.5
1158.94
1155.17
1151.24
1147.16
1142.95
1138.7
1134.52
1130.5
1126.76
1123.43
1120.58
1118.32
1116.73
1115.9
1115.86
1116.65
1118.24
1120.61
1123.73
1127.59
1132.08
1137.09
1142.45
1147.95
1153.31
1158.27
1162.51
1165.67
1167.42
1167.71
1167.16
1167.29
1169.33
1172.84
1175.7
1175.35
1169.66
1160.2
1145.09
1122.02
1094.55
1065.92
1039.18
1017.72
1000.07
984.722
972.033
963.014
957.89
956.277
957.943
962.329
968.98
977.835
988.619
1000.93
1014.12
1027.91
1042.09
1055.6
1067.93
1079.89
1091.92
1044.23
1141.8
1224.72
1205.96
1205.66
1204.5
1203.59
1202.93
1202.39
1201.98
1201.67
1201.44
1201.27
1201.15
1201.07
1201.02
1201.01
1201.03
1201.08
1201.15
1201.25
1201.36
1201.5
1201.66
1201.85
1202.09
1202.36
1202.68
1203.05
1203.48
1203.96
1204.48
1205.06
1205.68
1206.32
1207.05
1207.88
1208.66
1209.61
1210.71
1211.47
1212.1
1212.83
1213.83
1215.29
1217.44
1220.41
1224.26
1228.99
1234.59
1241.01
1248.02
1255.15
1261.96
1268.16
1273.95
1279.41
1284.56
1289.58
1294.54
1299.25
1303.6
1307.63
1311.11
1313.4
1312.17
1303.36
1287.9
1274.58
1271.78
1280.95
1290.26
1283.6
1271.42
1256.54
1209.83
1142.12
1069.38
994.135
933.463
889.511
854.762
824.045
796.72
770.744
746.32
727.184
712.042
700.208
697.693
705.908
724.052
750.176
782.794
823.463
868.16
914.521
964.85
1014
1045.91
1145.53
1216.89
1204.21
1203.86
1203.01
1202.29
1201.76
1201.32
1200.98
1200.7
1200.49
1200.32
1200.19
1200.09
1200.01
1199.96
1199.94
1199.93
1199.94
1199.97
1200.02
1200.08
1200.14
1200.2
1200.27
1200.34
1200.4
1200.44
1200.45
1200.43
1200.35
1200.19
1199.96
1199.62
1199.15
1198.51
1197.71
1196.72
1195.54
1194.17
1192.57
1190.65
1188.4
1185.88
1183.29
1180.87
1178.79
1177.12
1175.92
1175.26
1175.22
1175.71
1176.32
1176.58
1176.45
1176.14
1175.72
1175.22
1174.86
1174.65
1174.41
1174.17
1173.84
1173.31
1172.45
1169.64
1161.8
1150.38
1140.48
1136.07
1133.04
1126.05
1115.56
1107.24
1101.5
1088.05
1063.83
1032.5
997.542
974.003
962.181
955.331
949.421
942.749
932.345
915.544
884.41
837.568
798.872
772.828
758.789
755.293
760.537
773.63
794.111
822.168
857.512
902.976
1050.68
1147.69
1210.03
1199.92
1199.5
1198.9
1198.32
1197.9
1197.57
1197.31
1197.12
1196.98
1196.89
1196.84
1196.82
1196.83
1196.88
1196.95
1197.05
1197.18
1197.33
1197.5
1197.68
1197.88
1198.07
1198.26
1198.45
1198.62
1198.76
1198.87
1198.92
1198.9
1198.8
1198.61
1198.29
1197.84
1197.23
1196.44
1195.46
1194.29
1192.95
1191.45
1189.75
1187.78
1185.52
1183.08
1180.7
1178.59
1176.9
1175.69
1174.97
1174.82
1175.27
1176.12
1176.84
1177.13
1177.17
1177.06
1176.78
1176.47
1176.29
1176.1
1175.86
1175.51
1174.88
1173.7
1170.81
1163.75
1152.96
1142.59
1138.09
1136.45
1131.22
1120.49
1110.21
1100.45
1082.97
1052.82
1015.07
974.349
945.209
927.842
916.282
905.85
892.802
872.482
844.187
811.315
777.952
749.738
729.522
718.069
714.965
719.046
729.986
746.638
768.984
798.054
836.112
1065.26
1163.16
1204.66
1196.1
1195.67
1195.28
1194.82
1194.47
1194.2
1193.98
1193.8
1193.67
1193.57
1193.51
1193.46
1193.43
1193.43
1193.45
1193.49
1193.55
1193.62
1193.7
1193.79
1193.87
1193.94
1194
1194.03
1194.03
1193.98
1193.89
1193.72
1193.48
1193.13
1192.67
1192.08
1191.34
1190.44
1189.36
1188.08
1186.58
1184.87
1182.99
1180.91
1178.58
1175.95
1173.06
1170.1
1167.27
1164.77
1162.71
1161.09
1159.95
1159.37
1159.32
1159.37
1159.12
1158.56
1157.87
1157.03
1156.12
1155.35
1154.65
1153.91
1153.11
1152.16
1150.93
1148.69
1143.38
1133.82
1123.41
1117.5
1115.49
1111.74
1102.34
1092.14
1083.79
1071.44
1047.33
1015.71
978.701
948.837
931.145
920.956
912.83
902.001
883.077
853.305
815.425
774.447
737.82
709.498
690.736
681.2
679.967
686.375
698.854
717.043
741.384
774.371
1089.43
1213.25
1199.93
1191.86
1191.48
1191.24
1190.87
1190.57
1190.33
1190.14
1189.98
1189.84
1189.74
1189.66
1189.59
1189.54
1189.5
1189.48
1189.48
1189.49
1189.51
1189.54
1189.56
1189.58
1189.58
1189.56
1189.51
1189.42
1189.29
1189.1
1188.84
1188.49
1188.04
1187.48
1186.78
1185.93
1184.93
1183.74
1182.36
1180.77
1178.95
1176.93
1174.72
1172.26
1169.51
1166.47
1163.25
1160.06
1157.09
1154.48
1152.26
1150.46
1149.17
1148.43
1147.96
1147.33
1146.37
1145.24
1143.99
1142.66
1141.42
1140.27
1139.08
1137.82
1136.43
1134.85
1132.6
1128.15
1119.64
1109.39
1102.04
1099.3
1096.39
1088.31
1077.9
1069.39
1059.21
1038.83
1010.09
975.606
944.134
924.011
912.413
904.355
894.816
878.823
852.224
815.929
774.188
734.583
701.966
678.603
664.623
659.037
660.969
668.508
681.134
699.292
725.485
1116.19
1339.35
1196.71
1187.66
1187.37
1187.25
1186.95
1186.68
1186.45
1186.25
1186.08
1185.92
1185.78
1185.65
1185.53
1185.41
1185.31
1185.21
1185.13
1185.06
1184.99
1184.92
1184.85
1184.77
1184.66
1184.53
1184.36
1184.17
1183.92
1183.61
1183.24
1182.78
1182.21
1181.51
1180.68
1179.7
1178.56
1177.25
1175.74
1174.03
1172.08
1169.92
1167.55
1164.96
1162.12
1158.97
1155.56
1152.09
1148.7
1145.6
1142.86
1140.5
1138.59
1137.21
1136.21
1135.21
1133.9
1132.37
1130.72
1128.97
1127.24
1125.61
1123.97
1122.25
1120.44
1118.51
1116.15
1112.28
1104.98
1095.17
1086.75
1083.09
1080.62
1074
1063.83
1055.09
1046.56
1030.3
1004.75
973.587
942.072
919.907
906.634
898.19
889.629
876.417
853.281
819.276
777.793
736.192
700.026
672.573
654.587
645.241
643.452
647.102
655.475
668.754
688.597
1130.25
1439.46
1194.63
1183.61
1183.29
1183.27
1183.02
1182.76
1182.53
1182.32
1182.12
1181.93
1181.74
1181.56
1181.38
1181.2
1181.03
1180.87
1180.7
1180.55
1180.39
1180.24
1180.08
1179.9
1179.68
1179.43
1179.16
1178.84
1178.48
1178.05
1177.56
1176.97
1176.29
1175.48
1174.54
1173.45
1172.21
1170.77
1169.15
1167.32
1165.26
1162.95
1160.44
1157.72
1154.76
1151.51
1147.96
1144.24
1140.52
1136.96
1133.71
1130.79
1128.24
1126.15
1124.5
1123
1121.28
1119.3
1117.18
1114.96
1112.7
1110.55
1108.42
1106.22
1103.94
1101.58
1098.96
1095.35
1089.08
1079.84
1070.83
1066.03
1063.53
1058.2
1048.65
1039.57
1031.84
1018.99
996.601
968.791
938.404
914.593
899.549
890.376
882.514
871.896
853.095
823.407
784.691
743.209
704.746
673.823
652.192
639.489
634.409
634.63
639.147
647.757
661.651
1123.21
1324.36
1193
1179.78
1179.33
1179.4
1179.19
1178.93
1178.69
1178.46
1178.22
1177.99
1177.75
1177.51
1177.26
1177.01
1176.75
1176.5
1176.24
1175.98
1175.72
1175.46
1175.18
1174.88
1174.56
1174.21
1173.83
1173.4
1172.92
1172.37
1171.76
1171.05
1170.24
1169.32
1168.26
1167.06
1165.7
1164.16
1162.41
1160.46
1158.27
1155.84
1153.17
1150.28
1147.16
1143.78
1140.08
1136.12
1132.1
1128.12
1124.37
1120.92
1117.76
1115
1112.69
1110.64
1108.48
1106.07
1103.51
1100.82
1098.08
1095.41
1092.8
1090.16
1087.43
1084.65
1081.71
1078.16
1072.67
1064.18
1055.02
1049.06
1046.18
1041.87
1033.28
1023.99
1016.51
1006.29
987.263
962.515
934.042
909.173
892.479
882.34
874.761
865.777
850.906
826.446
792.431
753.245
714.134
680.586
655.729
639.914
631.743
628.77
629.792
634.412
643.321
1112.74
1421.51
1191.18
1176.1
1175.5
1175.65
1175.48
1175.21
1174.95
1174.68
1174.41
1174.12
1173.82
1173.52
1173.2
1172.87
1172.53
1172.19
1171.84
1171.49
1171.13
1170.75
1170.36
1169.96
1169.53
1169.07
1168.57
1168.03
1167.43
1166.76
1166.02
1165.18
1164.25
1163.2
1162.01
1160.67
1159.16
1157.47
1155.59
1153.48
1151.14
1148.56
1145.71
1142.63
1139.32
1135.76
1131.92
1127.75
1123.43
1119.09
1114.86
1110.89
1107.18
1103.78
1100.78
1098.13
1095.53
1092.7
1089.68
1086.55
1083.35
1080.17
1077.08
1073.99
1070.83
1067.63
1064.35
1060.69
1055.72
1048.09
1039.08
1032.11
1028.58
1024.93
1017.48
1008.22
1000.64
992.243
976.572
954.529
928.364
903.242
885.241
874.05
866.389
858.149
846.321
827.188
799.177
764.433
726.652
691.648
664.023
645.235
634.068
628.106
626.031
627.225
631.865
1107.2
1298.17
1188.48
1172.66
1171.88
1172.09
1171.93
1171.66
1171.38
1171.08
1170.77
1170.43
1170.07
1169.69
1169.3
1168.89
1168.47
1168.04
1167.6
1167.14
1166.67
1166.19
1165.69
1165.16
1164.6
1164.02
1163.39
1162.71
1161.98
1161.16
1160.28
1159.3
1158.22
1157.02
1155.68
1154.19
1152.53
1150.69
1148.64
1146.37
1143.86
1141.11
1138.09
1134.81
1131.31
1127.55
1123.52
1119.18
1114.59
1109.91
1105.27
1100.81
1096.57
1092.58
1088.95
1085.68
1082.58
1079.36
1075.94
1072.38
1068.73
1065.08
1061.51
1058
1054.42
1050.82
1047.19
1043.35
1038.67
1031.87
1023.19
1015.53
1011.19
1007.81
1001.48
992.551
984.742
977.427
964.837
945.352
921.642
897.076
878.022
865.674
857.625
849.598
839.709
825.057
803.27
774.553
740.313
705.551
676
654.591
640.566
631.714
626.716
624.832
625.865
1103.86
1389.34
1186.02
1169.24
1168.45
1168.71
1168.57
1168.3
1168
1167.67
1167.31
1166.92
1166.5
1166.06
1165.58
1165.09
1164.58
1164.05
1163.5
1162.93
1162.34
1161.74
1161.11
1160.45
1159.76
1159.03
1158.25
1157.43
1156.55
1155.59
1154.56
1153.43
1152.19
1150.82
1149.32
1147.66
1145.83
1143.81
1141.59
1139.14
1136.46
1133.52
1130.33
1126.85
1123.13
1119.17
1114.94
1110.43
1105.61
1100.63
1095.62
1090.7
1085.98
1081.47
1077.24
1073.37
1069.76
1066.13
1062.32
1058.37
1054.32
1050.23
1046.21
1042.27
1038.32
1034.35
1030.38
1026.32
1021.74
1015.6
1007.43
999.406
994.198
990.755
985.378
977.074
969.044
962.244
952.164
935.27
914.029
890.641
870.815
857.338
848.724
840.744
831.796
820.19
803.846
781.917
753.227
720.684
690.501
667.055
650.386
638.754
630.988
626.318
624.247
1100.77
1426.15
1183.4
1165.94
1165.19
1165.49
1165.38
1165.1
1164.78
1164.42
1164.01
1163.57
1163.09
1162.57
1162.01
1161.43
1160.82
1160.19
1159.53
1158.84
1158.13
1157.4
1156.63
1155.84
1155
1154.12
1153.19
1152.22
1151.17
1150.06
1148.85
1147.55
1146.14
1144.6
1142.92
1141.08
1139.06
1136.86
1134.45
1131.81
1128.94
1125.82
1122.43
1118.76
1114.82
1110.64
1106.22
1101.51
1096.5
1091.26
1085.93
1080.62
1075.45
1070.47
1065.71
1061.27
1057.12
1053.09
1048.93
1044.62
1040.2
1035.72
1031.29
1026.95
1022.66
1018.36
1014.07
1009.75
1005.16
999.483
991.927
983.832
977.823
974.062
969.41
961.908
953.805
947.127
938.912
924.657
905.737
883.901
863.67
849.218
839.996
832.125
823.399
813.315
800.927
785.433
763.591
735.396
706.267
681.792
662.991
648.816
638.435
631.161
626.297
1097.93
1448.64
1180.73
1162.75
1162.08
1162.43
1162.33
1162.05
1161.71
1161.32
1160.87
1160.37
1159.82
1159.22
1158.59
1157.91
1157.2
1156.46
1155.69
1154.88
1154.05
1153.18
1152.27
1151.32
1150.33
1149.3
1148.21
1147.06
1145.85
1144.55
1143.17
1141.68
1140.08
1138.35
1136.47
1134.43
1132.22
1129.82
1127.21
1124.38
1121.31
1117.98
1114.39
1110.53
1106.38
1101.99
1097.35
1092.45
1087.27
1081.8
1076.2
1070.55
1064.99
1059.59
1054.37
1049.4
1044.74
1040.28
1035.78
1031.16
1026.43
1021.64
1016.84
1012.14
1007.53
1002.93
998.347
993.786
989.105
983.745
976.808
968.869
962.25
958.004
953.792
947.145
939.193
932.432
925.463
913.753
896.949
876.869
856.731
841.508
831.686
824.001
815.196
805.522
795.429
785.149
770.394
748.187
722.085
698.018
677.918
661.627
648.84
639.124
631.728
1095.58
1448
1177.74
1159.71
1159.11
1159.5
1159.43
1159.14
1158.78
1158.35
1157.86
1157.3
1156.69
1156.02
1155.3
1154.53
1153.72
1152.87
1151.98
1151.05
1150.09
1149.08
1148.02
1146.92
1145.77
1144.57
1143.31
1141.98
1140.58
1139.09
1137.51
1135.82
1134.02
1132.08
1129.99
1127.74
1125.31
1122.7
1119.88
1116.83
1113.54
1110.01
1106.21
1102.14
1097.8
1093.19
1088.34
1083.24
1077.89
1072.25
1066.41
1060.48
1054.59
1048.81
1043.19
1037.76
1032.62
1027.74
1022.93
1018.03
1013.03
1007.97
1002.89
997.86
992.944
988.093
983.28
978.506
973.71
968.528
962.137
954.521
947.547
942.749
938.723
932.881
925.318
918.438
912.196
902.701
887.948
869.728
850.158
834.318
823.877
816.385
807.626
797.896
788.705
781.815
773.372
758.049
736.797
714.893
694.754
677.103
662.332
650.433
640.725
1093.54
1449.64
1174.76
1156.76
1156.28
1156.71
1156.64
1156.35
1155.97
1155.51
1154.98
1154.36
1153.68
1152.94
1152.14
1151.28
1150.37
1149.42
1148.41
1147.36
1146.26
1145.1
1143.9
1142.64
1141.33
1139.95
1138.51
1136.99
1135.39
1133.69
1131.9
1129.99
1127.96
1125.79
1123.47
1120.99
1118.34
1115.49
1112.43
1109.15
1105.64
1101.88
1097.87
1093.59
1089.04
1084.22
1079.16
1073.87
1068.34
1062.55
1056.53
1050.38
1044.19
1038.09
1032.12
1026.3
1020.73
1015.45
1010.32
1005.2
999.988
994.708
989.387
984.1
978.934
973.873
968.876
963.931
959.016
953.918
947.973
940.811
933.72
928.428
924.397
919.245
912.245
905.336
899.433
891.669
879.012
862.676
844.067
827.78
816.707
809.331
801.024
791.334
782.2
776.946
773.365
764.954
749.904
732.011
713.498
695.674
679.647
665.994
654.255
1091.71
1445.29
1171.65
1153.93
1153.56
1154.03
1153.98
1153.68
1153.28
1152.79
1152.21
1151.54
1150.8
1149.99
1149.1
1148.16
1147.16
1146.09
1144.98
1143.8
1142.56
1141.27
1139.92
1138.5
1137.01
1135.46
1133.82
1132.1
1130.29
1128.37
1126.35
1124.2
1121.92
1119.51
1116.94
1114.21
1111.3
1108.19
1104.88
1101.35
1097.59
1093.59
1089.35
1084.84
1080.08
1075.05
1069.79
1064.31
1058.61
1052.68
1046.5
1040.16
1033.75
1027.38
1021.1
1014.98
1009.05
1003.4
997.977
992.632
987.249
981.806
976.32
970.854
965.497
960.273
955.136
950.068
945.064
940.016
934.441
927.791
920.799
915.151
910.998
906.392
900.057
893.275
887.508
881.003
870.422
855.907
838.569
822.101
810.454
803.147
795.769
786.567
777.256
772.342
772.105
769.942
761.923
749.844
734.998
718.742
702.7
688.089
674.805
1090.07
1399.62
1168.07
1151.29
1150.95
1151.46
1151.41
1151.12
1150.7
1150.18
1149.55
1148.83
1148.03
1147.15
1146.19
1145.16
1144.07
1142.91
1141.68
1140.39
1139.02
1137.59
1136.09
1134.51
1132.85
1131.11
1129.27
1127.34
1125.3
1123.15
1120.88
1118.48
1115.94
1113.26
1110.42
1107.4
1104.2
1100.81
1097.22
1093.42
1089.39
1085.12