/*--------------------------------*- C++ -*----------------------------------*\
  =========                 |
  \\      /  F ield         | OpenFOAM: The Open Source CFD Toolbox
   \\    /   O peration     | Website:  https://openfoam.org
    \\  /    A nd           | Version:  9
     \\/     M anipulation  |
\*---------------------------------------------------------------------------*/
FoamFile
{
    format      ascii;
    class       volVectorField;
    location    "2250";
    object      U;
}
// * * * * * * * * * * * * * * * * * * * * * * * * * * * * * * * * * * * * * //

dimensions      [0 1 -1 0 0 0 0];

internalField   nonuniform List<vector> 
13354
(
(0.657354 -0.2151 6.04959e-20)
(0.504209 -0.225987 0)
(0.246232 -0.251861 -1.85848e-19)
(-0.131468 -0.359847 1.25833e-19)
(-0.403565 -0.445918 -1.0894e-20)
(-0.49189 -0.49067 2.27515e-20)
(-0.467269 -0.509519 0)
(-0.388513 -0.514238 2.60132e-21)
(-0.273501 -0.509784 0)
(-0.0845173 -0.49633 -1.17219e-20)
(0.123893 -0.445298 -6.67938e-21)
(0.298345 -0.347963 8.17139e-21)
(0.39077 -0.203348 -2.15599e-20)
(0.682127 -0.207215 -5.96263e-20)
(0.536661 -0.239175 0)
(0.362543 -0.27711 -3.45013e-20)
(-0.0167658 -0.392425 -3.7072e-20)
(-0.335928 -0.47882 3.19711e-20)
(-0.464877 -0.521217 -6.53407e-22)
(-0.47141 -0.535388 7.01924e-22)
(-0.405286 -0.531369 2.48049e-20)
(-0.307234 -0.509106 -8.34161e-20)
(-0.109307 -0.485913 3.25684e-20)
(0.157341 -0.455627 -1.27191e-20)
(0.401737 -0.382699 1.91334e-20)
(0.536211 -0.271166 8.95165e-21)
(0.696501 -0.198469 -2.46826e-20)
(0.568677 -0.232871 0)
(0.377575 -0.269776 3.36154e-20)
(-0.0469493 -0.414577 -1.69551e-20)
(-0.367172 -0.505771 -9.89004e-21)
(-0.486071 -0.546915 -1.0178e-21)
(-0.493876 -0.553693 3.49899e-21)
(-0.4038 -0.541126 8.99584e-21)
(-0.283422 -0.505984 4.55475e-21)
(-0.0963082 -0.462998 2.30461e-20)
(0.189465 -0.436717 -1.48701e-21)
(0.485434 -0.379937 0)
(0.662838 -0.299816 -2.13389e-20)
(0.696245 -0.180355 -2.05969e-20)
(0.567128 -0.222427 0)
(0.368146 -0.273581 0)
(-0.0725215 -0.424584 2.53003e-21)
(-0.387063 -0.506682 9.79931e-21)
(-0.496882 -0.545791 -4.50372e-21)
(-0.50816 -0.542557 6.68935e-21)
(-0.404379 -0.523331 -7.99281e-22)
(-0.269376 -0.487118 3.33241e-21)
(-0.0838111 -0.440163 1.77022e-20)
(0.222815 -0.405039 -2.79159e-20)
(0.562799 -0.34476 6.10965e-21)
(0.776649 -0.286352 1.96665e-20)
(0.692123 -0.159986 9.53291e-21)
(0.554115 -0.212173 -3.4019e-20)
(0.344443 -0.270206 8.58786e-20)
(-0.111083 -0.420902 -3.48645e-20)
(-0.406619 -0.492411 2.15486e-20)
(-0.501733 -0.525992 1.80701e-20)
(-0.509553 -0.511638 -2.41584e-20)
(-0.398699 -0.497958 -3.58848e-20)
(-0.283701 -0.477561 -2.52064e-21)
(-0.106806 -0.427898 -2.53118e-21)
(0.259942 -0.35791 -6.51209e-21)
(0.654866 -0.271408 -1.36766e-21)
(0.886508 -0.236541 -6.77736e-21)
(0.688122 -0.137535 -2.34481e-21)
(0.534626 -0.196173 5.37665e-21)
(0.299613 -0.262401 3.29102e-20)
(-0.15405 -0.400226 -1.11025e-20)
(-0.419353 -0.459489 1.83984e-21)
(-0.497889 -0.480242 3.47504e-20)
(-0.505828 -0.456321 0)
(-0.406058 -0.451222 5.28781e-20)
(-0.295745 -0.447165 -7.52933e-20)
(-0.0679973 -0.370599 -3.07286e-20)
(0.379383 -0.252164 -5.37566e-20)
(0.784837 -0.150158 5.7375e-21)
(0.990822 -0.15539 7.23337e-21)
(0.684955 -0.112536 1.60611e-22)
(0.510741 -0.174996 -3.90617e-21)
(0.240405 -0.247768 5.93331e-21)
(-0.190741 -0.364351 1.74884e-20)
(-0.417353 -0.408947 -4.66457e-20)
(-0.478634 -0.409729 -4.10743e-20)
(-0.470988 -0.371382 -7.80612e-20)
(-0.354365 -0.353031 0)
(-0.198729 -0.366083 -5.91382e-20)
(0.173113 -0.192821 -1.50285e-19)
(0.588536 -0.0642702 7.41968e-20)
(0.911012 0.00486617 -7.07607e-21)
(1.07255 -0.0276861 -2.88891e-20)
(0.683973 -0.0860221 -1.53911e-20)
(0.483103 -0.149573 0)
(0.180347 -0.222452 1.16187e-21)
(-0.212433 -0.317707 4.10617e-22)
(-0.39509 -0.342241 2.63523e-20)
(-0.431505 -0.317225 4.46673e-20)
(-0.378312 -0.263313 7.43045e-20)
(-0.221673 -0.225356 -1.37271e-19)
(0.0463349 -0.0698191 2.51781e-19)
(0.411441 0.0619521 1.52619e-19)
(0.74056 0.135769 0)
(0.982447 0.154411 0)
(1.12435 0.116411 2.23752e-20)
(0.686715 -0.0589378 2.18442e-20)
(0.455993 -0.118884 0)
(0.125073 -0.188341 0)
(-0.214613 -0.264556 0)
(-0.345124 -0.264119 0)
(-0.343246 -0.217401 -7.82207e-20)
(-0.219227 -0.12058 7.66265e-20)
(0.0232289 0.0258371 6.88551e-20)
(0.288704 0.147596 -7.84532e-20)
(0.569766 0.235393 -8.72154e-21)
(0.819707 0.274122 4.63168e-20)
(1.01324 0.271742 -4.25529e-20)
(1.14368 0.23913 4.29173e-21)
(0.695915 -0.0318077 -3.86324e-20)
(0.432102 -0.0841215 6.40041e-21)
(0.0781072 -0.152349 4.60434e-20)
(-0.193892 -0.208203 3.70614e-21)
(-0.267144 -0.182887 -3.00803e-21)
(-0.185666 -0.0876937 -8.37047e-21)
(0.0171091 0.0578445 -6.97479e-21)
(0.221237 0.173742 1.5736e-20)
(0.440592 0.267662 5.6893e-20)
(0.66093 0.328633 -6.69193e-20)
(0.858993 0.353101 -4.29378e-20)
(1.01921 0.347879 6.4815e-20)
(1.13184 0.320708 -2.45502e-20)
(0.714603 -0.00628669 2.02665e-20)
(0.408548 -0.0506143 -4.55348e-20)
(0.0440211 -0.120522 2.16711e-19)
(-0.148604 -0.151446 8.08369e-20)
(-0.142426 -0.0761981 -5.0692e-20)
(0.0274667 0.0557261 7.58738e-21)
(0.194973 0.163041 -1.29168e-20)
(0.368333 0.253656 0)
(0.546759 0.325128 -2.93049e-20)
(0.72083 0.369902 -6.46802e-21)
(0.877519 0.387247 1.20604e-20)
(1.00633 0.383021 -3.68687e-20)
(1.09847 0.360919 2.69791e-20)
(0.7443 0.014817 -1.55107e-21)
(0.384524 -0.0239104 -7.17504e-20)
(0.0272265 -0.0927291 -2.61142e-19)
(-0.0872947 -0.0716956 -2.41737e-19)
(0.0505891 0.0413089 1.17929e-19)
(0.19053 0.136314 -5.01167e-20)
(0.331487 0.219446 -9.33842e-21)
(0.475745 0.289293 -1.25874e-21)
(0.620239 0.342894 -1.17123e-21)
(0.757577 0.375771 1.97585e-21)
(0.880065 0.387961 0)
(0.981403 0.385573 1.88005e-21)
(1.05685 0.369859 -1.83727e-21)
(0.784119 0.0295787 1.65236e-22)
(0.350441 -0.00148438 8.18883e-20)
(0.001102 -0.0660661 0)
(0.0766463 0.0211847 1.02993e-19)
(0.194426 0.104946 -5.15404e-20)
(0.312675 0.177625 -6.72135e-21)
(0.432133 0.241793 1.62156e-20)
(0.552206 0.294653 -4.05379e-21)
(0.668976 0.334545 3.99352e-21)
(0.777409 0.358659 -4.01399e-22)
(0.873298 0.367658 -6.76055e-22)
(0.953706 0.368023 4.86622e-22)
(1.01725 0.359177 -4.75129e-22)
(0.832296 0.0392848 -2.36119e-20)
(0.318507 0.0166137 0)
(0.104623 -0.00371814 1.25837e-19)
(0.199752 0.0734843 -2.08779e-19)
(0.300126 0.138443 4.86604e-20)
(0.403727 0.193083 3.2042e-20)
(0.505923 0.24225 -1.09186e-20)
(0.60602 0.282139 9.51358e-21)
(0.700995 0.311981 2.2015e-21)
(0.787742 0.33021 -1.04651e-20)
(0.864234 0.337768 8.43058e-22)
(0.929713 0.34098 3.79954e-21)
(0.984343 0.337912 1.02344e-22)
(0.887482 0.0441459 2.09416e-20)
(0.325185 0.0372171 5.62574e-20)
(0.188797 0.0445147 0)
(0.293586 0.0993034 8.25259e-20)
(0.379756 0.152955 -6.40571e-20)
(0.471581 0.193611 -3.30019e-20)
(0.560323 0.231064 -2.60383e-20)
(0.644473 0.261473 0)
(0.723031 0.284266 -1.58256e-20)
(0.794102 0.298692 8.46685e-21)
(0.856893 0.305716 0)
(0.911547 0.310948 -4.10767e-21)
(0.958761 0.311833 0)
(0.947101 0.045141 -5.63656e-20)
(0.369321 0.0540078 1.26056e-19)
(0.254215 0.0769441 -1.30807e-19)
(0.36629 0.110795 4.65324e-20)
(0.441435 0.155927 0)
(0.522357 0.186891 3.1111e-20)
(0.600901 0.214999 -2.06523e-22)
(0.673092 0.238598 0)
(0.739448 0.256486 1.57535e-20)
(0.799332 0.268365 -1.40994e-20)
(0.852283 0.275008 -1.17174e-21)
(0.898662 0.281144 1.13086e-21)
(0.939326 0.284248 0)
(1.00785 0.0435186 1.81125e-20)
(0.441914 0.0634166 -4.40054e-21)
(0.302854 0.0975127 5.51989e-20)
(0.421139 0.114832 0)
(0.490677 0.151743 0)
(0.560957 0.176948 4.21126e-20)
(0.631542 0.197824 1.20702e-20)
(0.695254 0.216317 0)
(0.752666 0.230714 -1.76356e-20)
(0.804296 0.240684 1.4133e-20)
(0.849875 0.246789 0)
(0.889645 0.252914 -5.52964e-22)
(0.924587 0.256986 5.38206e-22)
(1.06625 0.0401836 5.90912e-20)
(0.535963 0.0652077 -7.52089e-20)
(0.343431 0.109015 0)
(0.459626 0.115696 0)
(0.530843 0.143343 -4.37586e-20)
(0.591507 0.165467 -8.3254e-22)
(0.654948 0.181235 -3.4315e-20)
(0.712728 0.195638 1.97674e-20)
(0.763676 0.207366 1.75794e-20)
(0.808987 0.215772 -3.03829e-20)
(0.848764 0.221178 1.55e-21)
(0.883182 0.226738 -1.50099e-21)
(0.913307 0.231005 -1.89644e-20)
(1.11934 0.035721 -4.02551e-20)
(0.644506 0.0607295 5.91916e-20)
(0.385227 0.112937 -1.353e-22)
(0.483565 0.115852 -2.92621e-20)
(0.56289 0.13321 7.96722e-20)
(0.616984 0.153023 0)
(0.673213 0.165694 2.21331e-20)
(0.72641 0.176785 -1.96153e-20)
(0.772785 0.186285 3.3313e-20)
(0.813169 0.193318 3.40817e-20)
(0.848247 0.19797 -3.01401e-20)
(0.878341 0.202733 2.21395e-20)
(0.904599 0.206779 2.04587e-20)
(1.16509 0.0304526 0)
(0.759631 0.0519955 -5.00455e-20)
(0.438774 0.109564 8.07704e-20)
(0.496727 0.115993 8.73884e-20)
(0.585835 0.123422 -1.21711e-19)
(0.638765 0.139981 -4.20262e-20)
(0.688124 0.151079 -9.71042e-21)
(0.736952 0.159666 1.791e-20)
(0.779983 0.167188 -4.16022e-20)
(0.816639 0.172983 -3.54447e-21)
(0.847907 0.176909 3.02064e-20)
(0.874554 0.18085 -2.36901e-20)
(0.897812 0.184474 2.06909e-20)
(1.20262 0.0245654 0)
(0.872613 0.0410328 1.22848e-20)
(0.510247 0.0995346 -4.17203e-21)
(0.506212 0.115156 2.52152e-20)
(0.598436 0.115435 3.79674e-21)
(0.65655 0.127041 6.96246e-20)
(0.700995 0.137114 9.21132e-21)
(0.745068 0.144042 -3.2116e-20)
(0.785269 0.149873 2.94837e-20)
(0.819221 0.154516 0)
(0.847544 0.157766 -3.08921e-21)
(0.871483 0.16097 3.0078e-21)
(0.892487 0.164094 -2.08539e-20)
(1.23188 0.0182227 -1.74748e-20)
(0.975162 0.0297266 -2.35855e-20)
(0.603815 0.0838115 -3.29043e-21)
(0.521462 0.111553 4.13046e-20)
(0.601583 0.10955 4.20462e-20)
(0.668662 0.115132 -7.22429e-20)
(0.712194 0.123625 -3.18347e-20)
(0.751624 0.129592 3.95953e-20)
(0.788824 0.134138 -9.40681e-21)
(0.820774 0.137735 2.53734e-20)
(0.847028 0.140356 -2.35321e-20)
(0.86894 0.14292 0)
(0.88827 0.145538 -1.99048e-20)
(1.25338 0.0117118 8.8445e-21)
(1.06156 0.0192276 1.89731e-20)
(0.713613 0.0648432 -1.57138e-20)
(0.552412 0.103129 -3.79846e-20)
(0.59935 0.10483 0)
(0.673278 0.105048 3.45093e-20)
(0.720884 0.110834 2.76725e-21)
(0.75726 0.116037 -2.01165e-20)
(0.791162 0.11974 -3.41692e-20)
(0.821297 0.122494 -2.55198e-20)
(0.846205 0.124538 -1.15012e-21)
(0.866765 0.126531 2.72328e-21)
(0.884896 0.128665 2.00687e-20)
(1.26794 0.00529401 0)
(1.13012 0.00989581 -8.15917e-21)
(0.828401 0.0452224 -2.25592e-20)
(0.605628 0.0893213 1.48557e-20)
(0.59978 0.0995172 0)
(0.670286 0.0971241 -2.86486e-20)
(0.725271 0.0992983 2.90613e-20)
(0.76192 0.103302 2.71147e-20)
(0.792885 0.106453 -2.32481e-20)
(0.821006 0.108629 0)
(0.844958 0.110189 4.53925e-20)
(0.86478 0.111663 1.79426e-20)
(0.882149 0.113323 -1.19139e-21)
(1.27647 -0.000771063 -6.32587e-21)
(1.1816 0.00173326 1.34368e-20)
(0.937138 0.0270695 0)
(0.683525 0.0707948 0)
(0.612037 0.0916256 2.66579e-20)
(0.662661 0.0907187 4.22217e-20)
(0.723677 0.0895149 -6.49003e-21)
(0.764552 0.0915834 -1.1808e-20)
(0.7943 0.0941192 5.58173e-20)
(0.820309 0.0959497 1.47992e-20)
(0.843279 0.0971682 -2.3156e-20)
(0.862771 0.0981898 -1.70763e-20)
(0.879797 0.0993666 -2.31075e-40)
(1.28 -0.00625351 -1.0837e-20)
(1.21808 -0.00530579 -1.28903e-21)
(1.03015 0.0117026 0)
(0.779693 0.0498498 0)
(0.644604 0.079546 -4.779e-20)
(0.657027 0.0843542 -2.33293e-20)
(0.716084 0.081586 0)
(0.763468 0.0812442 0)
(0.794994 0.0827476 -4.59988e-20)
(0.819586 0.0842679 -3.38935e-20)
(0.841344 0.0853094 2.255e-21)
(0.860583 0.085995 -2.20174e-21)
(0.877601 0.0866878 0)
(1.2795 -0.011078 -4.03205e-21)
(1.24215 -0.011331 -6.06497e-21)
(1.10379 -0.000593867 0)
(0.881771 0.0293218 7.53254e-21)
(0.70135 0.0631095 1.99192e-21)
(0.661986 0.076248 1.21784e-21)
(0.705381 0.0749244 1.06144e-20)
(0.757351 0.0725486 1.88709e-20)
(0.793705 0.0725204 3.75269e-20)
(0.818784 0.0734933 3.56124e-20)
(0.839456 0.0744245 0)
(0.858211 0.074932 0)
(0.875336 0.0751828 0)
(1.2759 -0.0152129 1.8496e-20)
(1.25632 -0.0163705 0)
(1.15845 -0.0101203 -5.20618e-21)
(0.976427 0.0114308 6.13369e-21)
(0.780022 0.0437239 1.65386e-20)
(0.685638 0.064951 -1.78462e-20)
(0.697677 0.0682703 2.27757e-20)
(0.746699 0.0653823 -1.92263e-20)
(0.788897 0.0636566 -1.84061e-21)
(0.817102 0.0636883 -3.67748e-20)
(0.837736 0.0643841 1.67064e-20)
(0.855842 0.0648293 -1.86906e-21)
(0.872897 0.0647436 0)
(1.27 -0.0186682 -8.09616e-21)
(1.2629 -0.0204694 8.34469e-21)
(1.19659 -0.0173626 0)
(1.05532 -0.00284827 9.72388e-21)
(0.870144 0.0240724 0)
(0.732372 0.05 1.64539e-20)
(0.701005 0.0600625 -1.78485e-20)
(0.734735 0.0590593 -1.57323e-20)
(0.779797 0.0562323 -1.63929e-21)
(0.813257 0.0550053 1.57485e-20)
(0.835779 0.055166 -1.49856e-20)
(0.853666 0.0555378 -8.38699e-22)
(0.870385 0.0552311 8.18586e-22)
(1.2625 -0.021488 -1.38207e-20)
(1.26383 -0.0237129 0)
(1.22122 -0.0227565 0)
(1.11619 -0.0136082 -4.87462e-21)
(0.957617 0.00666208 -4.82417e-23)
(0.800267 0.0325201 -1.83729e-20)
(0.722432 0.0492253 3.67586e-21)
(0.727652 0.0524742 1.20233e-20)
(0.76758 0.0499917 -1.5222e-20)
(0.805917 0.047611 1.30553e-20)
(0.832617 0.0468762 -1.61538e-21)
(0.851551 0.0470022 1.57541e-21)
(0.867998 0.046507 0)
(1.25397 -0.0237202 6.72699e-21)
(1.26069 -0.0261891 0)
(1.23536 -0.0266644 3.49078e-21)
(1.16018 -0.0214204 3.38286e-21)
(1.03266 -0.00724053 0)
(0.880431 0.0148334 1.05627e-21)
(0.765666 0.0354324 -1.16263e-20)
(0.73263 0.0444216 0)
(0.756162 0.0442095 -1.57875e-20)
(0.795071 0.0414368 -1.01329e-20)
(0.826861 0.0396846 1.48649e-21)
(0.848865 0.0392822 -1.44648e-21)
(0.86577 0.0384813 0)
(1.24483 -0.025415 5.29562e-21)
(1.25475 -0.0279855 -1.14087e-20)
(1.24162 -0.0293664 2.99285e-21)
(1.18982 -0.0268491 -9.87711e-21)
(1.09182 -0.0175663 -3.23532e-21)
(0.958588 -0.000626958 4.68448e-22)
(0.828549 0.019757 2.48484e-20)
(0.755837 0.0339904 0)
(0.751465 0.0378574 9.63451e-21)
(0.782784 0.036095 2.91613e-21)
(0.817825 0.0336247 0)
(0.844399 0.0325329 0)
(0.863329 0.0311402 0)
(1.23545 -0.0266301 -1.01887e-20)
(1.24696 -0.0291981 2.88192e-22)
(1.24219 -0.0311129 8.08371e-21)
(1.20802 -0.0304361 3.24185e-21)
(1.13539 -0.0248365 3.45993e-21)
(1.02603 -0.012775 9.94392e-21)
(0.900375 0.00451136 -8.37335e-21)
(0.799261 0.0212706 6.75213e-21)
(0.760706 0.0299409 2.7019e-21)
(0.77339 0.0308923 0)
(0.806228 0.0285235 0)
(0.837151 0.0268889 9.2766e-21)
(0.859746 0.0245894 0)
(1.22606 -0.0274191 -4.42265e-21)
(1.23806 -0.0299119 4.52119e-21)
(1.23877 -0.0321029 2.41058e-21)
(1.21751 -0.0326191 -2.49427e-21)
(1.16535 -0.0296606 0)
(1.07951 -0.0216317 -3.54409e-21)
(0.968913 -0.008358 -2.95072e-21)
(0.859192 0.00757833 -8.04228e-21)
(0.78781 0.0199945 0)
(0.773373 0.0248585 -6.80788e-21)
(0.795024 0.0238946 -2.36534e-21)
(0.827008 0.0223149 -8.91399e-22)
(0.853907 0.0189584 0)
(1.21682 -0.0278317 0)
(1.22858 -0.0302026 0)
(1.23267 -0.0324939 -2.13315e-21)
(1.22057 -0.0337396 2.19635e-21)
(1.18428 -0.0325968 0)
(1.11911 -0.0276508 -5.35074e-21)
(1.02744 -0.0181821 5.79418e-22)
(0.92319 -0.00491322 0)
(0.833735 0.00839239 0)
(0.78793 0.0172903 1.2679e-20)
(0.789542 0.0189404 9.32126e-21)
(0.815666 0.0184925 -1.77612e-20)
(0.845281 0.0143123 7.63996e-21)
(1.19687 -0.0260447 2.69312e-22)
(1.20786 -0.0279203 3.43711e-21)
(1.21888 -0.030143 -3.51878e-21)
(1.22487 -0.0324212 0)
(1.21908 -0.0340776 0)
(1.19467 -0.0341336 2.0824e-21)
(1.14653 -0.0314268 -2.18879e-21)
(1.0736 -0.02512 5.03181e-21)
(0.982253 -0.0150028 0)
(0.889496 -0.00301576 -1.47112e-21)
(0.820793 0.00795695 1.38925e-21)
(0.795197 0.0129545 -8.89507e-21)
(0.807324 0.0147276 9.06201e-21)
(0.834609 0.0105331 -7.80354e-21)
(1.16197 -0.0170969 1.62112e-22)
(1.16429 -0.0180159 6.70076e-21)
(1.16692 -0.0189878 -3.05821e-21)
(1.1697 -0.0200106 -3.3521e-22)
(1.17242 -0.0210756 -4.04267e-22)
(1.17508 -0.0221701 4.98341e-21)
(1.17821 -0.0233015 2.3317e-21)
(1.18283 -0.0245373 5.54676e-21)
(1.18985 -0.025986 -2.78367e-21)
(1.19923 -0.0277359 -3.02288e-21)
(1.20923 -0.0297993 -3.035e-21)
(1.21606 -0.0319947 3.25298e-21)
(1.21444 -0.0338491 0)
(1.1987 -0.03466 -1.84122e-21)
(1.16396 -0.0335145 1.91643e-21)
(1.10766 -0.0296422 -3.92405e-21)
(1.03172 -0.0224489 0)
(0.945409 -0.0127776 1.23285e-21)
(0.866751 -0.00192359 -2.94129e-21)
(0.817146 0.00544366 -1.58271e-21)
(0.806864 0.0102339 -6.14611e-21)
(0.825037 0.00717814 -4.36156e-22)
(1.15923 -0.0168347 0)
(1.16126 -0.0177698 5.64092e-21)
(1.16358 -0.0187536 -2.90174e-21)
(1.16606 -0.0197857 -3.42196e-22)
(1.16851 -0.0208587 -3.16953e-22)
(1.17087 -0.0219619 3.94885e-21)
(1.17353 -0.0230962 -2.32667e-21)
(1.17731 -0.0243115 0)
(1.18306 -0.0256933 0)
(1.19094 -0.027324 -2.45302e-21)
(1.19976 -0.0292298 5.75507e-21)
(1.20673 -0.0313032 -1.60639e-21)
(1.20772 -0.0332188 1.79299e-22)
(1.19811 -0.0344759 -1.58918e-21)
(1.17358 -0.0343784 0)
(1.13108 -0.0322867 2.02308e-21)
(1.07018 -0.0275114 1.93226e-21)
(0.995143 -0.0203155 0)
(0.917032 -0.0109359 0)
(0.853228 -0.00287286 -3.13524e-21)
(0.82015 0.00425579 6.36732e-21)
(0.820805 0.00363207 6.23695e-21)
(1.1564 -0.0164684 -4.26503e-21)
(1.15813 -0.0174058 -4.97372e-21)
(1.16013 -0.0183875 -2.51612e-21)
(1.16231 -0.0194147 -3.01635e-21)
(1.16447 -0.020481 -3.24381e-22)
(1.16654 -0.021577 0)
(1.16877 -0.0227009 -1.74741e-21)
(1.17183 -0.0238881 -2.04337e-21)
(1.17648 -0.0252042 2.11331e-21)
(1.18297 -0.0267243 -2.0038e-21)
(1.19057 -0.0284802 2.3818e-21)
(1.1972 -0.0304144 -2.73693e-21)
(1.19969 -0.0323052 2.88122e-21)
(1.19428 -0.0338006 0)
(1.17731 -0.034377 -2.82069e-21)
(1.14577 -0.0335351 0)
(1.09814 -0.0306237 -8.48679e-22)
(1.03574 -0.0256376 9.04695e-22)
(0.964564 -0.0182532 -9.86053e-22)
(0.896474 -0.0108065 3.91582e-21)
(0.847033 -0.00278701 -6.00335e-22)
(0.827365 -0.000824353 -5.43208e-21)
(1.15348 -0.0160076 2.07555e-21)
(1.15492 -0.0169359 1.3214e-22)
(1.15661 -0.0179048 4.76515e-21)
(1.15847 -0.0189158 0)
(1.16034 -0.0199644 2.55586e-21)
(1.16211 -0.0210415 -2.777e-21)
(1.16395 -0.0221445 3.39046e-21)
(1.16639 -0.0232973 -1.70675e-21)
(1.17006 -0.0245501 1.89484e-21)
(1.17531 -0.0259684 -3.69079e-21)
(1.1817 -0.0275856 1.02767e-22)
(1.1877 -0.0293763 3.22813e-21)
(1.19088 -0.0311918 -1.16179e-21)
(1.18824 -0.0327873 -2.33767e-21)
(1.17672 -0.033773 1.48295e-21)
(1.15361 -0.0337743 2.68242e-21)
(1.11699 -0.0322307 6.47698e-22)
(1.06662 -0.0290332 1.57066e-21)
(1.00523 -0.0236328 -2.44348e-21)
(0.939974 -0.0174887 4.57929e-22)
(0.882652 -0.00985228 -7.51369e-22)
(0.846097 -0.00613568 2.35207e-21)
(1.1505 -0.0154619 1.64995e-21)
(1.15166 -0.016372 -1.72697e-21)
(1.15304 -0.0173196 -2.00733e-22)
(1.15458 -0.0183059 2.09638e-21)
(1.15614 -0.0193276 -2.55365e-21)
(1.15761 -0.0203773 2.77533e-21)
(1.15909 -0.0214509 0)
(1.16096 -0.0225649 1.52423e-21)
(1.16379 -0.0237567 -3.21605e-21)
(1.16793 -0.025081 1.79769e-21)
(1.17315 -0.0265714 1.91466e-21)
(1.17835 -0.0282218 1.63416e-21)
(1.18167 -0.0299343 -1.92786e-21)
(1.18074 -0.0315409 4.38503e-21)
(1.17305 -0.0327541 2.15788e-21)
(1.15624 -0.0332993 -2.53674e-21)
(1.12838 -0.0327186 -1.04302e-22)
(1.08852 -0.0308799 1.28655e-21)
(1.03744 -0.0271937 2.92017e-21)
(0.978969 -0.0225414 0)
(0.920905 -0.0160384 -2.11071e-22)
(0.874083 -0.0116652 -1.70221e-21)
(1.14749 -0.01484 0)
(1.14836 -0.0157246 1.53109e-21)
(1.14943 -0.016644 -1.89273e-21)
(1.15064 -0.017599 1.8599e-21)
(1.15189 -0.0185875 -3.97763e-21)
(1.15306 -0.0196032 2.12264e-21)
(1.15418 -0.020641 0)
(1.15556 -0.0217117 -2.49272e-21)
(1.15764 -0.022844 4.04329e-21)
(1.16079 -0.0240816 -1.45477e-21)
(1.16491 -0.0254566 -1.47504e-21)
(1.16924 -0.0269741 -1.11303e-21)
(1.17234 -0.0285711 4.48847e-21)
(1.17236 -0.0301336 -2.04887e-21)
(1.16725 -0.031452 -1.3082e-21)
(1.15503 -0.0323281 1.04489e-21)
(1.13395 -0.0323982 -5.67704e-22)
(1.10275 -0.0315443 -6.83813e-22)
(1.06123 -0.0292213 -1.34151e-21)
(1.01107 -0.0259603 1.26279e-21)
(0.956886 -0.0208591 -1.35223e-21)
(0.906382 -0.0166893 0)
(1.14405 -0.013327 0)
(1.14446 -0.0141503 -2.14765e-21)
(1.14504 -0.0150035 1.19608e-21)
(1.1458 -0.0158895 -1.66955e-21)
(1.14669 -0.0168083 3.03934e-21)
(1.14762 -0.0177584 -9.1674e-23)
(1.14848 -0.0187341 0)
(1.14926 -0.0197312 1.00911e-22)
(1.15018 -0.0207555 1.23622e-21)
(1.15161 -0.021829 -1.34698e-21)
(1.15387 -0.0229863 -2.47441e-21)
(1.15698 -0.0242564 1.55181e-21)
(1.16039 -0.0256498 -2.32274e-21)
(1.16305 -0.0271281 -1.70992e-21)
(1.16347 -0.028615 2.3414e-21)
(1.16004 -0.0299581 -1.88518e-21)
(1.15109 -0.0310169 8.60616e-22)
(1.13509 -0.031508 0)
(1.11079 -0.0313388 -5.20336e-22)
(1.0775 -0.0300406 1.08538e-21)
(1.03566 -0.0279429 -2.88163e-21)
(0.987674 -0.0242025 1.51676e-22)
(0.938374 -0.0207181 0)
(1.14128 -0.0126117 -8.28091e-22)
(1.14143 -0.0134006 1.05674e-21)
(1.14172 -0.014218 1.27627e-22)
(1.14216 -0.0150661 -3.52834e-21)
(1.14274 -0.0159447 1.22525e-21)
(1.14335 -0.0168525 -1.53981e-21)
(1.1439 -0.017784 0)
(1.14434 -0.0187365 9.25773e-22)
(1.14484 -0.0197119 0)
(1.14567 -0.0207272 -1.09401e-21)
(1.14715 -0.0218093 1.07546e-21)
(1.14932 -0.0229834 2.52378e-21)
(1.15184 -0.0242626 -1.22464e-21)
(1.15391 -0.0256244 0)
(1.15437 -0.0270193 -1.54233e-21)
(1.15193 -0.0283364 0)
(1.14523 -0.0294778 -8.6444e-22)
(1.13298 -0.0302259 0)
(1.11401 -0.030513 -4.51259e-22)
(1.08748 -0.0299522 1.10256e-21)
(1.05316 -0.0287612 1.30769e-21)
(1.01207 -0.0261912 6.34935e-24)
(0.966884 -0.0235614 1.17932e-21)
(1.13853 -0.0118481 1.14009e-21)
(1.13841 -0.0125988 1.47158e-21)
(1.13841 -0.013377 6.58428e-23)
(1.13855 -0.014184 8.97245e-22)
(1.1388 -0.0150189 -9.47093e-22)
(1.13909 -0.0158811 1.19408e-21)
(1.13932 -0.0167655 -1.24581e-21)
(1.13944 -0.0176701 7.79866e-23)
(1.13953 -0.0185946 -1.54965e-21)
(1.13983 -0.0195525 8.24797e-22)
(1.1406 -0.0205637 -1.58323e-22)
(1.14193 -0.0216497 1.08434e-21)
(1.14359 -0.0228245 0)
(1.14498 -0.0240758 0)
(1.14524 -0.0253719 -1.13162e-21)
(1.14331 -0.0266335 0)
(1.1381 -0.0277925 0)
(1.12853 -0.0286829 -1.04795e-21)
(1.11359 -0.02926 5.24319e-23)
(1.09242 -0.0292095 -1.47785e-21)
(1.0645 -0.0286897 -5.11553e-24)
(1.03004 -0.0270549 2.02246e-21)
(0.990276 -0.0252549 -1.01306e-21)
(1.13581 -0.0110434 -2.09024e-21)
(1.13542 -0.0117531 -1.17272e-21)
(1.13514 -0.0124891 0)
(1.13497 -0.0132523 -6.80501e-22)
(1.1349 -0.0140412 1.71919e-21)
(1.13487 -0.0148556 -8.66447e-22)
(1.13478 -0.0156908 9.6804e-22)
(1.13457 -0.0165455 6.49863e-22)
(1.13428 -0.0174183 1.25986e-21)
(1.13409 -0.0183193 -3.92714e-23)
(1.13422 -0.0192632 -2.35779e-21)
(1.13477 -0.0202686 4.5744e-23)
(1.13561 -0.0213481 0)
(1.13632 -0.0224963 -4.99343e-22)
(1.1362 -0.0236937 1.65111e-21)
(1.13444 -0.0248833 5.69216e-22)
(1.13016 -0.0260201 -5.79958e-22)
(1.12246 -0.0269753 6.815e-22)
(1.11049 -0.027725 1.33419e-21)
(1.09346 -0.0280151 0)
(1.07076 -0.0279723 -6.83497e-22)
(1.04218 -0.0270477 -1.54733e-21)
(1.00807 -0.0259603 -3.53009e-40)
(1.13313 -0.0102055 -7.27857e-22)
(1.13248 -0.010872 4.0083e-23)
(1.13191 -0.0115639 5.01506e-22)
(1.13143 -0.0122814 6.81588e-22)
(1.13105 -0.0130227 -1.48845e-21)
(1.1307 -0.0137877 2.42464e-21)
(1.13029 -0.0145727 -1.81375e-21)
(1.12976 -0.0153764 5.02311e-22)
(1.1291 -0.0161973 -5.63512e-22)
(1.12844 -0.0170424 -1.23251e-21)
(1.12798 -0.0179229 1.1847e-22)
(1.12783 -0.018854 5.12091e-23)
(1.12791 -0.0198472 1.14495e-21)
(1.12791 -0.0209005 -8.30556e-22)
(1.12733 -0.0220038 -8.4496e-22)
(1.1255 -0.0231148 4.66114e-22)
(1.12172 -0.0242053 4.70358e-22)
(1.11527 -0.025176 2.74916e-22)
(1.10543 -0.0260176 -6.08428e-22)
(1.09153 -0.0265258 -2.94567e-22)
(1.07296 -0.0268096 9.65e-23)
(1.04933 -0.026406 9.85451e-23)
(1.02051 -0.0258865 -3.03227e-40)
(1.13052 -0.00934316 -3.5056e-23)
(1.1296 -0.00996503 3.71529e-22)
(1.12874 -0.0106115 -8.25389e-22)
(1.12796 -0.011282 9.60684e-22)
(1.12727 -0.011975 -1.60347e-21)
(1.1266 -0.0126904 6.04714e-22)
(1.12587 -0.0134252 0)
(1.125 -0.014178 -4.14936e-22)
(1.12398 -0.0149476 3.78505e-22)
(1.12289 -0.0157384 -3.07635e-23)
(1.12189 -0.0165592 1.63206e-21)
(1.12108 -0.0174218 0)
(1.12045 -0.0183368 0)
(1.11976 -0.0193043 0)
(1.11865 -0.0203197 1.22042e-21)
(1.11658 -0.0213522 -3.97568e-22)
(1.113 -0.022385 -6.97059e-22)
(1.10733 -0.0233415 -1.00864e-23)
(1.09899 -0.0242223 2.39564e-22)
(1.08739 -0.0248628 4.79035e-22)
(1.072 -0.0253619 1.23115e-21)
(1.05237 -0.0253302 1.07664e-21)
(1.02816 -0.0252405 -7.31722e-23)
(1.12799 -0.00846625 -4.18908e-23)
(1.12679 -0.00904289 -4.9139e-22)
(1.12565 -0.00964339 -2.81449e-22)
(1.12457 -0.0102667 3.3606e-22)
(1.12356 -0.0109116 4.98885e-22)
(1.12257 -0.0115782 0)
(1.12152 -0.0122635 6.05447e-22)
(1.12032 -0.0129666 -3.32999e-22)
(1.11894 -0.0136862 -2.74852e-23)
(1.11743 -0.0144252 -4.47136e-22)
(1.11592 -0.0151903 -5.32744e-22)
(1.11451 -0.0159907 4.87383e-22)
(1.1132 -0.0168353 0)
(1.11185 -0.0177259 0)
(1.11016 -0.0186609 3.31425e-22)
(1.10775 -0.0196183 -1.77134e-23)
(1.10415 -0.02059 0)
(1.09891 -0.0215157 2.02601e-22)
(1.09155 -0.0224028 3.98564e-22)
(1.0816 -0.0231188 -1.11142e-21)
(1.06859 -0.0237544 -7.38084e-23)
(1.05211 -0.0239822 -7.58081e-23)
(1.03174 -0.0242047 -2.2461e-40)
(1.12554 -0.00758577 2.59153e-22)
(1.12407 -0.00811714 0)
(1.12264 -0.00867177 2.82111e-22)
(1.12126 -0.00924861 -7.67089e-23)
(1.11994 -0.00984668 0)
(1.11863 -0.0104659 4.29135e-22)
(1.11725 -0.0111035 -2.28007e-23)
(1.11571 -0.011759 -5.81341e-22)
(1.11397 -0.0124308 2.92778e-22)
(1.11205 -0.0131208 -3.79245e-22)
(1.11006 -0.0138346 -3.49703e-22)
(1.10808 -0.0145789 -8.23181e-22)
(1.10614 -0.0153613 2.29224e-23)
(1.10414 -0.0161839 -4.66618e-22)
(1.10187 -0.0170477 0)
(1.09902 -0.0179367 -2.94015e-22)
(1.09523 -0.0188481 -3.10043e-22)
(1.09015 -0.0197349 0)
(1.08338 -0.0206093 -7.27519e-22)
(1.07455 -0.0213642 4.15219e-22)
(1.06328 -0.0220825 -5.38942e-22)
(1.0492 -0.0224887 -3.53604e-22)
(1.03193 -0.022931 0)
(1.12318 -0.00671361 -2.59523e-22)
(1.12144 -0.00720038 -1.20503e-22)
(1.11972 -0.00771016 0)
(1.11805 -0.00824199 -2.61186e-22)
(1.11641 -0.00879514 0)
(1.11476 -0.00936914 3.45012e-22)
(1.11305 -0.00996182 -7.8935e-22)
(1.11117 -0.0105724 2.30568e-22)
(1.10907 -0.0111997 -2.40535e-22)
(1.10675 -0.0118445 -2.60071e-22)
(1.10429 -0.0125114 6.44688e-22)
(1.10177 -0.0132053 3.9081e-22)
(1.09922 -0.0139325 7.00317e-23)
(1.09659 -0.0146957 1.0876e-21)
(1.09372 -0.0154976 -2.26922e-22)
(1.09037 -0.0163263 5.10315e-22)
(1.08628 -0.0171822 -3.91142e-22)
(1.08114 -0.0180291 2.90938e-22)
(1.07466 -0.0188814 1.86637e-22)
(1.06654 -0.0196524 -8.37452e-23)
(1.05648 -0.0204179 1.7249e-22)
(1.04418 -0.0209457 -8.86028e-23)
(1.02931 -0.0215411 -3.51467e-22)
(1.12093 -0.00586271 2.67503e-22)
(1.11891 -0.00630597 -4.84801e-23)
(1.11691 -0.00677226 2.63892e-22)
(1.11492 -0.00726101 -1.56688e-22)
(1.11296 -0.00777167 -1.89993e-22)
(1.11098 -0.00830333 2.76723e-22)
(1.10893 -0.00885398 -2.89794e-22)
(1.1067 -0.00942253 1.8925e-22)
(1.10423 -0.0100086 -1.9753e-22)
(1.10151 -0.0106122 1.5443e-23)
(1.09858 -0.0112369 -3.84023e-23)
(1.09553 -0.0118865 3.09115e-22)
(1.0924 -0.0125664 -4.31595e-22)
(1.08915 -0.0132789 -7.52348e-23)
(1.08567 -0.0140277 -1.19045e-23)
(1.08178 -0.0148042 -2.64189e-23)
(1.07728 -0.0156114 2.54316e-22)
(1.07192 -0.0164219 1.02943e-22)
(1.06548 -0.0172508 2.65609e-22)
(1.05774 -0.018027 -1.37404e-22)
(1.04846 -0.0188194 2.75193e-22)
(1.03742 -0.019433 -3.97086e-23)
(1.02436 -0.0201347 3.93131e-22)
(1.11878 -0.00504695 0)
(1.11649 -0.00544836 2.68118e-23)
(1.11419 -0.00587321 -1.97092e-22)
(1.11189 -0.00632145 1.11256e-22)
(1.10959 -0.00679221 1.90793e-22)
(1.10728 -0.0072843 0)
(1.10487 -0.00779592 -1.32144e-22)
(1.10229 -0.00832595 5.53629e-24)
(1.09943 -0.00887412 0)
(1.0963 -0.00944018 0)
(1.09291 -0.0100268 2.32611e-22)
(1.08934 -0.0106372 -2.41363e-22)
(1.08562 -0.0112767 3.07314e-22)
(1.08175 -0.0119473 -4.98472e-22)
(1.07765 -0.0126529 3.38606e-22)
(1.07317 -0.0133876 1.08312e-23)
(1.06817 -0.0141559 -2.95754e-22)
(1.06245 -0.0149372 -2.38893e-22)
(1.05585 -0.0157465 1.11027e-22)
(1.0482 -0.0165262 -6.18284e-23)
(1.03935 -0.0173384 -2.15436e-22)
(1.02912 -0.0180193 2.81686e-22)
(1.01736 -0.0188005 2.24719e-22)
(1.11675 -0.00428251 -4.76126e-23)
(1.11417 -0.00464418 5.25151e-23)
(1.11156 -0.00503008 1.27625e-22)
(1.10894 -0.00544037 -1.919e-22)
(1.10631 -0.00587397 1.07473e-22)
(1.10364 -0.00632915 0)
(1.10087 -0.00680459 0)
(1.09791 -0.0072994 1.33496e-22)
(1.09467 -0.0078132 0)
(1.0911 -0.00834602 0)
(1.08725 -0.00890008 0)
(1.08315 -0.00947795 1.0966e-22)
(1.07884 -0.0100843 1.02534e-22)
(1.07433 -0.0107216 -1.20063e-22)
(1.06956 -0.0113944 1.48448e-22)
(1.06444 -0.0120999 -2.96412e-22)
(1.05883 -0.0128431 -8.72875e-23)
(1.05262 -0.0136083 8.873e-23)
(1.04566 -0.014409 0)
(1.03786 -0.0151995 -1.90798e-22)
(1.02912 -0.0160346 0)
(1.01934 -0.0167763 -2.1987e-22)
(1.00844 -0.0176249 -2.89086e-22)
(1.11482 -0.00358876 0)
(1.11195 -0.00391403 -1.21521e-24)
(1.10904 -0.00426442 2.07056e-23)
(1.10607 -0.0046401 0)
(1.10309 -0.00503964 -1.07877e-22)
(1.10006 -0.00546103 0)
(1.09692 -0.00590351 6.5173e-23)
(1.09356 -0.00636669 -8.16225e-23)
(1.0899 -0.00685034 -9.90913e-23)
(1.08589 -0.00735477 0)
(1.08154 -0.00788229 0)
(1.07688 -0.00843558 9.11502e-23)
(1.07195 -0.0090192 -4.14326e-22)
(1.06676 -0.00963566 2.26541e-22)
(1.06127 -0.01029 -1.09818e-22)
(1.0554 -0.0109818 1.45485e-22)
(1.04908 -0.0117166 1.30839e-22)
(1.04221 -0.0124825 -1.41064e-22)
(1.03471 -0.0132922 0)
(1.02652 -0.0141087 2.36822e-22)
(1.01762 -0.0149779 -4.50894e-23)
(1.00796 -0.0157833 0)
(0.99757 -0.0166979 -1.79317e-40)
(1.11299 -0.00298997 -8.50523e-23)
(1.10983 -0.00328361 -2.93058e-23)
(1.10658 -0.00360349 -2.07462e-23)
(1.10327 -0.00394889 3.89119e-23)
(1.09993 -0.00431842 -7.19427e-23)
(1.09652 -0.00471019 0)
(1.09299 -0.00512448 -2.45767e-23)
(1.08921 -0.00556163 8.19723e-23)
(1.08509 -0.00602231 1.21317e-22)
(1.08059 -0.00650723 9.90939e-23)
(1.0757 -0.00701841 -8.87873e-23)
(1.07043 -0.00755902 -1.32061e-22)
(1.06481 -0.00813335 0)
(1.05885 -0.00874524 7.77047e-23)
(1.05253 -0.00940095 1.97151e-22)
(1.0458 -0.0101009 9.58522e-23)
(1.03861 -0.0108494 -7.05216e-23)
(1.0309 -0.0116378 1.41527e-23)
(1.02265 -0.0124774 3.12461e-23)
(1.01386 -0.013337 7.2554e-23)
(1.00455 -0.0142539 -3.7343e-23)
(0.994782 -0.0151288 -1.55548e-22)
(0.98463 -0.0161099 1.02562e-23)
(1.11123 -0.00251408 0)
(1.10776 -0.00278359 3.05442e-23)
(1.10417 -0.00308032 0)
(1.10051 -0.00340229 3.70298e-23)
(1.09679 -0.00374822 3.10382e-23)
(1.09299 -0.0041172 -4.17678e-23)