/*--------------------------------*- C++ -*----------------------------------*\
  =========                 |
  \\      /  F ield         | OpenFOAM: The Open Source CFD Toolbox
   \\    /   O peration     | Website:  https://openfoam.org
    \\  /    A nd           | Version:  9
     \\/     M anipulation  |
\*---------------------------------------------------------------------------*/
FoamFile
{
    format      ascii;
    class       volScalarField;
    location    "2250";
    object      gammaInt;
}
// * * * * * * * * * * * * * * * * * * * * * * * * * * * * * * * * * * * * * //

dimensions      [0 0 0 0 0 0 0];

internalField   nonuniform List<scalar> 
13617
(
0.998939
0.999639
0.99967
0.999596
0.999499
0.999407
0.999315
0.999223
0.999129
0.999035
0.998939
0.998839
0.998727
0.998602
0.99846
0.998299
0.998116
0.99791
0.997678
0.997417
0.997124
0.996797
0.996435
0.996036
0.995596
0.995114
0.994586
0.994011
0.993386
0.99271
0.991981
0.991201
0.990369
0.989486
0.988556
0.987582
0.986569
0.985524
0.984455
0.983372
0.98229
0.981222
0.980169
0.979145
0.978161
0.977232
0.97637
0.975584
0.974888
0.974291
0.973805
0.973439
0.973202
0.973101
0.973144
0.973336
0.973676
0.974162
0.974788
0.975538
0.976312
0.9771
0.977801
0.978244
0.978325
0.977996
0.977279
0.976237
0.974912
0.973255
0.971142
0.968485
0.96508
0.960295
0.954146
0.948788
0.942279
0.919529
0.874433
0.78356
0.641438
0.549087
0.550997
0.565038
0.545212
0.507874
0.998939
0.999631
0.99967
0.999601
0.999509
0.999421
0.999332
0.999242
0.999151
0.999059
0.998966
0.998868
0.998759
0.998637
0.998498
0.99834
0.998162
0.99796
0.997732
0.997475
0.997185
0.996863
0.996505
0.996108
0.995671
0.995191
0.994665
0.99409
0.993465
0.992787
0.992055
0.991269
0.990429
0.989537
0.988594
0.987604
0.986572
0.985505
0.98441
0.983297
0.982181
0.981075
0.979981
0.978912
0.97788
0.9769
0.975983
0.975142
0.974387
0.973731
0.973183
0.972756
0.972457
0.972294
0.972276
0.972408
0.972692
0.973125
0.973703
0.974413
0.975186
0.975976
0.976676
0.977085
0.977111
0.976732
0.975957
0.974834
0.973374
0.971527
0.969151
0.966123
0.962252
0.956965
0.950229
0.943735
0.935331
0.912609
0.875347
0.791414
0.642967
0.539927
0.535543
0.530111
0.498357
0.470028
0.998941
0.999621
0.99967
0.999607
0.99952
0.999435
0.99935
0.999263
0.999174
0.999085
0.998994
0.998898
0.998792
0.998672
0.998537
0.998382
0.998207
0.998009
0.997785
0.997532
0.997247
0.996928
0.996573
0.99618
0.995746
0.995269
0.994744
0.99417
0.993545
0.992865
0.99213
0.991339
0.990493
0.989591
0.988637
0.987632
0.986583
0.985495
0.984376
0.983235
0.982087
0.980945
0.979813
0.978701
0.977624
0.976595
0.975626
0.974731
0.97392
0.973205
0.972598
0.972109
0.971748
0.971523
0.971442
0.971512
0.971734
0.972109
0.972634
0.973296
0.974045
0.974839
0.975585
0.976121
0.976196
0.97584
0.975047
0.973871
0.97232
0.970354
0.96781
0.964543
0.960365
0.954855
0.947947
0.940701
0.930634
0.908153
0.877978
0.804923
0.651791
0.536047
0.520013
0.502057
0.46234
0.447966
0.998943
0.99961
0.999668
0.999612
0.999531
0.99945
0.999368
0.999283
0.999197
0.99911
0.999021
0.998927
0.998824
0.998707
0.998574
0.998423
0.998252
0.998058
0.997838
0.997589
0.997308
0.996993
0.996642
0.996253
0.995822
0.995346
0.994824
0.994251
0.993625
0.992945
0.992207
0.991413
0.99056
0.98965
0.988684
0.987666
0.986601
0.985493
0.98435
0.983182
0.982004
0.980828
0.979658
0.978505
0.977383
0.976306
0.975286
0.974337
0.973469
0.972696
0.972029
0.971478
0.971053
0.970763
0.970616
0.97062
0.970777
0.971089
0.971554
0.972159
0.972868
0.973644
0.974408
0.975031
0.975295
0.975058
0.974355
0.973196
0.971626
0.969599
0.966967
0.96357
0.959208
0.953591
0.946701
0.939178
0.927836
0.905143
0.879565
0.816967
0.662385
0.534874
0.506508
0.482269
0.436749
0.433061
0.998945
0.999599
0.999666
0.999617
0.999541
0.999465
0.999386
0.999303
0.999219
0.999134
0.999048
0.998957
0.998855
0.998741
0.998612
0.998464
0.998296
0.998106
0.997891
0.997646
0.997368
0.997057
0.99671
0.996325
0.995897
0.995424
0.994904
0.994333
0.993708
0.993027
0.992287
0.991489
0.990631
0.989713
0.988738
0.987707
0.986626
0.985499
0.984334
0.983141
0.981933
0.980723
0.979516
0.978323
0.977157
0.976032
0.974962
0.973959
0.973035
0.972202
0.971474
0.970859
0.970369
0.970012
0.969797
0.969731
0.969818
0.970064
0.970463
0.971004
0.97166
0.972399
0.973156
0.973826
0.974228
0.974211
0.973677
0.972645
0.971147
0.969151
0.96652
0.963085
0.958656
0.953037
0.946195
0.938764
0.926586
0.90335
0.880277
0.826519
0.673091
0.535465
0.494999
0.468903
0.41905
0.418272
0.998947
0.999587
0.999664
0.999622
0.999551
0.999479
0.999403
0.999323
0.999241
0.999159
0.999074
0.998985
0.998886
0.998775
0.998649
0.998504
0.99834
0.998154
0.997943
0.997702
0.997428
0.997122
0.996779
0.996396
0.995972
0.995503
0.994985
0.994416
0.993792
0.993111
0.99237
0.991569
0.990706
0.989782
0.988797
0.987755
0.986659
0.985515
0.984329
0.983111
0.981874
0.980632
0.979389
0.978156
0.976946
0.975775
0.974654
0.973597
0.972617
0.971725
0.970935
0.970256
0.969699
0.969273
0.968987
0.968849
0.968863
0.969038
0.969367
0.969838
0.97043
0.971117
0.971845
0.972527
0.973014
0.973177
0.972887
0.972058
0.970732
0.968854
0.966325
0.962967
0.958593
0.953048
0.946261
0.939062
0.926594
0.902844
0.880708
0.834265
0.683322
0.537301
0.485286
0.460071
0.408276
0.403976
0.998947
0.999574
0.999661
0.999626
0.999561
0.999493
0.99942
0.999343
0.999263
0.999183
0.9991
0.999013
0.998917
0.998808
0.998685
0.998544
0.998383
0.998201
0.997994
0.997757
0.997488
0.997186
0.996847
0.996469
0.996048
0.995582
0.995067
0.9945
0.993878
0.993197
0.992456
0.991653
0.990786
0.989856
0.988863
0.98781
0.986701
0.98554
0.984334
0.983093
0.981828
0.980555
0.979278
0.978006
0.976753
0.975536
0.974365
0.973255
0.972219
0.971268
0.970414
0.96967
0.969045
0.968549
0.96819
0.967977
0.967917
0.968017
0.96827
0.968666
0.969186
0.969808
0.970488
0.971155
0.971681
0.971956
0.971882
0.97132
0.970226
0.968574
0.966223
0.963034
0.958834
0.953463
0.946711
0.939602
0.927584
0.903654
0.881465
0.840986
0.693221
0.539863
0.477406
0.454939
0.403157
0.393983
0.998948
0.999561
0.999658
0.99963
0.99957
0.999507
0.999437
0.999362
0.999285
0.999206
0.999126
0.999041
0.998947
0.998841
0.99872
0.998583
0.998426
0.998248
0.998045
0.997813
0.997548
0.99725
0.996915
0.996541
0.996124
0.995662
0.99515
0.994586
0.993966
0.993286
0.992545
0.99174
0.990871
0.989936
0.988936
0.987874
0.986752
0.985575
0.984351
0.983088
0.981797
0.980493
0.979183
0.977874
0.97658
0.975316
0.974097
0.972935
0.971842
0.970832
0.969916
0.969106
0.968413
0.967845
0.967412
0.96712
0.966984
0.967006
0.96718
0.967494
0.967934
0.968481
0.969097
0.969723
0.970252
0.970582
0.970639
0.970314
0.969517
0.968125
0.96603
0.963113
0.959177
0.954057
0.947332
0.940041
0.929113
0.905544
0.882865
0.847094
0.702826
0.542801
0.471445
0.453183
0.401923
0.387606
0.998947
0.999547
0.999654
0.999634
0.99958
0.99952
0.999454
0.999381
0.999306
0.999229
0.999151
0.999068
0.998976
0.998873
0.998756
0.998621
0.998468
0.998294
0.998096
0.997867
0.997607
0.997313
0.996983
0.996613
0.996201
0.995743
0.995235
0.994674
0.994056
0.993378
0.992638
0.991832
0.990961
0.990022
0.989016
0.987946
0.986813
0.985622
0.98438
0.983097
0.981782
0.980449
0.979106
0.977761
0.976427
0.97512
0.973852
0.972638
0.971491
0.970421
0.969443
0.968567
0.967805
0.967164
0.966655
0.966285
0.966069
0.966011
0.966102
0.966331
0.966683
0.967144
0.967682
0.968247
0.968745
0.969087
0.969206
0.969016
0.968453
0.9674
0.965569
0.962954
0.959374
0.954604
0.947852
0.940016
0.93045
0.908118
0.885126
0.852611
0.712265
0.54612
0.467144
0.452595
0.402986
0.384333
0.998947
0.999533
0.99965
0.999637
0.999589
0.999533
0.99947
0.9994
0.999327
0.999252
0.999175
0.999095
0.999005
0.998905
0.99879
0.998659
0.99851
0.99834
0.998146
0.997922
0.997666
0.997377
0.997051
0.996686
0.996278
0.995824
0.99532
0.994763
0.994148
0.993473
0.992734
0.991929
0.991056
0.990115
0.989105
0.988027
0.986884
0.985681
0.984423
0.983121
0.981783
0.980423
0.97905
0.97767
0.976297
0.974947
0.973633
0.972369
0.971167
0.970039
0.968999
0.968058
0.967225
0.966512
0.965926
0.965475
0.965178
0.965037
0.965043
0.96518
0.96544
0.965806
0.966254
0.966738
0.967179
0.967492
0.967618
0.967484
0.967041
0.96618
0.964654
0.962397
0.959168
0.95476
0.947969
0.93939
0.930653
0.911049
0.888397
0.857949
0.721521
0.54993
0.464113
0.451602
0.40525
0.383253
0.998945
0.999519
0.999645
0.99964
0.999597
0.999546
0.999486
0.999419
0.999347
0.999274
0.9992
0.999121
0.999034
0.998936
0.998824
0.998697
0.998551
0.998385
0.998196
0.997977
0.997725
0.997441
0.99712
0.99676
0.996356
0.995907
0.995408
0.994854
0.994243
0.993571
0.992834
0.992031
0.991158
0.990215
0.989201
0.988117
0.986967
0.985753
0.984481
0.983162
0.981803
0.980417
0.979015
0.977602
0.976193
0.974801
0.973442
0.972128
0.970873
0.969688
0.968587
0.96758
0.966679
0.965892
0.965228
0.964697
0.964318
0.964092
0.964008
0.964051
0.964211
0.964476
0.964821
0.965209
0.965568
0.965818
0.965905
0.965762
0.965349
0.964562
0.963176
0.961126
0.958294
0.954327
0.947429
0.937645
0.929017
0.913926
0.892554
0.86351
0.730781
0.554389
0.462181
0.449894
0.407798
0.382982
0.998943
0.999505
0.99964
0.999643
0.999605
0.999558
0.999501
0.999436
0.999367
0.999296
0.999223
0.999146
0.999062
0.998966
0.998858
0.998734
0.998592
0.99843
0.998245
0.998031
0.997784
0.997505
0.997189
0.996833
0.996435
0.995991
0.995496
0.994948
0.994341
0.993673
0.992939
0.992138
0.991266
0.990322
0.989306
0.988219
0.987061
0.985838
0.984554
0.983219
0.981841
0.980432
0.979003
0.97756
0.976115
0.974684
0.973282
0.97192
0.970613
0.969373
0.968211
0.96714
0.96617
0.96531
0.964568
0.963956
0.963493
0.96318
0.963005
0.96295
0.963006
0.963161
0.963394
0.96367
0.963927
0.964086
0.964094
0.963889
0.96343
0.962622
0.96125
0.959246
0.95658
0.952808
0.945678
0.934872
0.925486
0.915706
0.897138
0.869487
0.740133
0.559654
0.4613
0.447088
0.410087
0.382375
0.99894
0.99949
0.999635
0.999645
0.999613
0.99957
0.999516
0.999454
0.999386
0.999317
0.999246
0.999171
0.999089
0.998996
0.998891
0.99877
0.998633
0.998475
0.998294
0.998085
0.997843
0.997568
0.997258
0.996908
0.996515
0.996076
0.995587
0.995044
0.994442
0.993778
0.993048
0.99225
0.99138
0.990438
0.989421
0.98833
0.987168
0.985937
0.984644
0.983296
0.9819
0.98047
0.979016
0.977544
0.976066
0.974598
0.973154
0.971747
0.97039
0.969096
0.967875
0.966741
0.965703
0.96477
0.963951
0.963258
0.962711
0.96231
0.96204
0.961884
0.961831
0.96187
0.961983
0.962134
0.962269
0.962312
0.962208
0.961895
0.961332
0.960425
0.958967
0.95688
0.954183
0.950345
0.943018
0.931291
0.920673
0.915207
0.901701
0.875896
0.74963
0.565799
0.461336
0.444215
0.412547
0.381194
0.998937
0.999475
0.99963
0.999647
0.999621
0.999582
0.999531
0.999471
0.999405
0.999338
0.999268
0.999195
0.999115
0.999025
0.998923
0.998806
0.998672
0.998519
0.998343
0.998138
0.997902
0.997633
0.997327
0.996983
0.996596
0.996163
0.995679
0.995142
0.994546
0.993887
0.993162
0.992368
0.991502
0.990561
0.989545
0.988454
0.987288
0.986052
0.98475
0.983391
0.98198
0.980531
0.979055
0.977556
0.976048
0.974545
0.973062
0.971612
0.970207
0.96886
0.967583
0.966387
0.965282
0.964278
0.963382
0.962608
0.961977
0.961487
0.961121
0.960861
0.960695
0.960613
0.960596
0.960612
0.960609
0.960513
0.960267
0.95981
0.959092
0.958022
0.956395
0.954114
0.951199
0.947198
0.939645
0.927078
0.914991
0.911542
0.905717
0.882518
0.759364
0.572896
0.462259
0.442056
0.415796
0.379697
0.998933
0.99946
0.999624
0.999649
0.999628
0.999593
0.999545
0.999487
0.999424
0.999357
0.99929
0.999219
0.999141
0.999054
0.998955
0.998841
0.998712
0.998563
0.998391
0.998192
0.997961
0.997697
0.997397
0.997059
0.996678
0.996251
0.995774
0.995243
0.994653
0.994
0.993281
0.992493
0.991631
0.990694
0.98968
0.988589
0.987422
0.986182
0.984875
0.983506
0.982083
0.980618
0.979121
0.977599
0.976063
0.974528
0.973009
0.971518
0.970068
0.968671
0.967338
0.966082
0.964913
0.963839
0.962867
0.962013
0.961297
0.960718
0.960256
0.95989
0.959607
0.959399
0.959245
0.959115
0.958959
0.958705
0.958293
0.957659
0.956746
0.95546
0.953591
0.951003
0.947789
0.943531
0.935712
0.922372
0.908728
0.905714
0.90805
0.88872
0.769164
0.581096
0.46412
0.440493
0.420629
0.378223
0.998928
0.999444
0.999618
0.99965
0.999635
0.999603
0.999558
0.999503
0.999441
0.999377
0.999311
0.999242
0.999166
0.999082
0.998986
0.998876
0.99875
0.998606
0.998439
0.998245
0.998019
0.997761
0.997468
0.997135
0.996761
0.996341
0.995871
0.995346
0.994764
0.994118
0.993406
0.992623
0.991767
0.990835
0.989825
0.988736
0.98757
0.986329
0.985018
0.983643
0.98221
0.980731
0.979217
0.977674
0.976113
0.974549
0.972996
0.971467
0.969974
0.96853
0.967146
0.965832
0.9646
0.963458
0.962411
0.961479
0.96068
0.960011
0.959451
0.958977
0.958577
0.958238
0.957942
0.957656
0.957335
0.956906
0.956305
0.955466
0.954321
0.952773
0.9506
0.947651
0.944069
0.939471
0.931344
0.917297
0.902093
0.898438
0.907254
0.893611
0.778868
0.590386
0.467056
0.439124
0.429547
0.377618
0.998923
0.999429
0.999612
0.999651
0.999641
0.999614
0.999571
0.999518
0.999458
0.999395
0.999331
0.999264
0.999191
0.999109
0.999016
0.99891
0.998788
0.998649
0.998487
0.998298
0.998078
0.997826
0.997538
0.997213
0.996846
0.996433
0.99597
0.995453
0.994878
0.99424
0.993536
0.992761
0.991912
0.990986
0.989982
0.988897
0.987734
0.986494
0.985182
0.983802
0.982361
0.980872
0.979344
0.977783
0.9762
0.97461
0.973026
0.971462
0.96993
0.968442
0.967008
0.96564
0.964348
0.96314
0.962021
0.961012
0.960131
0.959373
0.958716
0.958134
0.957613
0.957141
0.956696
0.956249
0.955751
0.955132
0.954324
0.953255
0.951848
0.949998
0.947466
0.944133
0.940129
0.935132
0.92665
0.911968
0.895256
0.890239
0.902745
0.89671
0.788168
0.600821
0.471207
0.437842
0.442156
0.378663
0.998917
0.999413
0.999605
0.999652
0.999647
0.999623
0.999584
0.999532
0.999474
0.999413
0.99935
0.999285
0.999214
0.999135
0.999045
0.998943
0.998826
0.998691
0.998534
0.99835
0.998136
0.99789
0.99761
0.997291
0.996931
0.996526
0.996071
0.995563
0.994996
0.994367
0.993672
0.992906
0.992065
0.991147
0.99015
0.989072
0.987913
0.986676
0.985365
0.983984
0.982539
0.981042
0.979502
0.977927
0.976325
0.974712
0.973102
0.971507
0.969939
0.96841
0.966931
0.965511
0.964162
0.962891
0.961702
0.960619
0.959657
0.958812
0.958058
0.95737
0.956728
0.95612
0.955524
0.954907
0.954224
0.953403
0.952369
0.95105
0.949355
0.94717
0.944264
0.940509
0.936045
0.930583
0.921732
0.906488
0.888363
0.8815
0.895582
0.896564
0.79679
0.612393
0.476737
0.436786
0.449231
0.381321
0.99891
0.999398
0.999598
0.999652
0.999652
0.999632
0.999595
0.999546
0.999489
0.99943
0.999369
0.999306
0.999237
0.99916
0.999074
0.998976
0.998862
0.998732
0.998581
0.998403
0.998195
0.997955
0.997681
0.99737
0.997018
0.99662
0.996174
0.995675
0.995118
0.994498
0.993813
0.993057
0.992226
0.991318
0.990329
0.989259
0.988108
0.986877
0.985569
0.98419
0.982743
0.981242
0.979694
0.978107
0.976491
0.974859
0.973226
0.971603
0.970003
0.968437
0.966915
0.965448
0.964046
0.962715
0.96146
0.960306
0.959267
0.958338
0.95749
0.956695
0.955933
0.955188
0.954439
0.953649
0.952773
0.951738
0.950466
0.948878
0.946876
0.94433
0.94104
0.936848
0.931876
0.925893
0.916672
0.900962
0.88155
0.872545
0.88657
0.893443
0.80444
0.62501
0.483837
0.436235
0.451635
0.385565
0.998902
0.999382
0.999591
0.999652
0.999656
0.99964
0.999606
0.999559
0.999504
0.999446
0.999387
0.999325
0.999259
0.999185
0.999102
0.999008
0.998899
0.998773
0.998628
0.998455
0.998254
0.998021
0.997754
0.997451
0.997106
0.996718
0.996281
0.995791
0.995244
0.994635
0.99396
0.993215
0.992395
0.991498
0.99052
0.98946
0.988318
0.987096
0.985794
0.984419
0.982975
0.981472
0.97992
0.978326
0.976698
0.975052
0.973399
0.971753
0.970125
0.968527
0.966966
0.965456
0.964005
0.96262
0.961303
0.960082
0.95897
0.95796
0.957021
0.956122
0.955241
0.954362
0.953458
0.952492
0.951417
0.95016
0.94864
0.946769
0.944443
0.941529
0.937843
0.933191
0.927691
0.921153
0.911546
0.895472
0.874955
0.863652
0.876363
0.887905
0.810978
0.638634
0.492645
0.436564
0.450736
0.392027
0.998894
0.999366
0.999584
0.999651
0.99966
0.999648
0.999616
0.999571
0.999518
0.999461
0.999403
0.999344
0.99928
0.999209
0.999129
0.999038
0.998934
0.998813
0.998673
0.998508
0.998313
0.998087
0.997828
0.997533
0.997198
0.996819
0.996392
0.995912
0.995376
0.994779
0.994116
0.993382
0.992575
0.991689
0.990724
0.989676
0.988545
0.987333
0.986041
0.984672
0.983233
0.981733
0.98018
0.978582
0.976948
0.97529
0.973623
0.971958
0.970307
0.96868
0.967088
0.965538
0.964044
0.96261
0.961238
0.959955
0.958775
0.957688
0.956663
0.955665
0.954669
0.953656
0.952598
0.951455
0.95018
0.948697
0.946919
0.944757
0.942098
0.938814
0.934703
0.929571
0.923532
0.916448
0.906444
0.890102
0.868683
0.855048
0.865504
0.88044
0.816196
0.653035
0.503269
0.438174
0.447441
0.402302
0.998884
0.999351
0.999577
0.99965
0.999664
0.999654
0.999625
0.999582
0.99953
0.999475
0.999418
0.99936
0.999298
0.999229
0.999153
0.999065
0.998965
0.998849
0.998715
0.998555
0.998367
0.998149
0.997899
0.997613
0.997288
0.99692
0.996504
0.996037
0.995514
0.99493
0.99428
0.99356
0.992766
0.991895
0.990943
0.989908
0.988791
0.987591
0.98631
0.984952
0.98352
0.982025
0.980476
0.978878
0.977241
0.975577
0.9739
0.972221
0.970552
0.968903
0.967283
0.965702
0.964169
0.962693
0.961272
0.959933
0.95869
0.957533
0.956426
0.955334
0.954227
0.953085
0.951877
0.95056
0.949085
0.947374
0.945337
0.942879
0.939883
0.936225
0.93168
0.92606
0.919482
0.911859
0.901465
0.884942
0.86282
0.846918
0.854438
0.871475
0.819959
0.667993
0.51581
0.441439
0.442912
0.417921
0.998874
0.999335
0.99957
0.999649
0.999667
0.99966
0.999634
0.999592
0.999541
0.999487
0.999432
0.999375
0.999314
0.999248
0.999174
0.999089
0.998993
0.998882
0.998752
0.998598
0.998416
0.998205
0.997963
0.997686
0.997371
0.997015
0.996611
0.996157
0.995649
0.995082
0.994448
0.993745
0.992968
0.992114
0.991178
0.990159
0.989058
0.987872
0.986604
0.985259
0.983838
0.982352
0.980809
0.979216
0.97758
0.975915
0.974232
0.972545
0.970863
0.969197
0.967556
0.965949
0.964386
0.962874
0.961411
0.960022
0.958723
0.957501
0.95632
0.955141
0.95393
0.952665
0.951313
0.949828
0.948156
0.946221
0.943926
0.941173
0.937833
0.933777
0.928812
0.922738
0.915623
0.907469
0.896713
0.880081
0.857436
0.839419
0.843548
0.86141
0.822125
0.683156
0.530238
0.446693
0.43856
0.435607
0.998863
0.99932
0.999562
0.999647
0.999669
0.999666
0.999641
0.9996
0.999551
0.999498
0.999443
0.999387
0.999328
0.999264
0.999192
0.99911
0.999017
0.99891
0.998784
0.998636
0.99846
0.998256
0.998022
0.997753
0.997448
0.997101
0.99671
0.996269
0.995776
0.995226
0.994611
0.993928
0.993174
0.99234
0.991425
0.990427
0.989344
0.988176
0.986926
0.985595
0.984189
0.982715
0.981182
0.979597
0.977967
0.976304
0.974622
0.972931
0.971242
0.969566
0.967911
0.966285
0.964699
0.963158
0.961661
0.960229
0.95888
0.9576
0.956352
0.955094
0.953787
0.952407
0.950919
0.949274
0.947415
0.945263
0.942719
0.939679
0.936
0.931562
0.926199
0.919664
0.912031
0.903358
0.892272
0.875584
0.852596
0.832668
0.833164
0.850658
0.822604
0.698101
0.546451
0.454189
0.43551
0.44566
0.998852
0.999304
0.999554
0.999645
0.999671
0.99967
0.999647
0.999608
0.999559
0.999507
0.999453
0.999398
0.99934
0.999277
0.999207
0.999128
0.999038
0.998934
0.998813
0.998669
0.998499
0.998302
0.998074
0.997814
0.997517
0.997181
0.9968
0.996373
0.995894
0.995359
0.994763
0.994101
0.993369
0.992562
0.991676
0.990703
0.989645
0.988501
0.987271
0.98596
0.984572
0.983114
0.981596
0.980022
0.978403
0.976748
0.975071
0.973383
0.971694
0.970013
0.96835
0.966712
0.96511
0.963548
0.962024
0.960556
0.959163
0.957833
0.956525
0.955195
0.953802
0.952319
0.950707
0.948915
0.946882
0.944527
0.941747
0.938423
0.934439
0.929644
0.923887
0.916923
0.908815
0.899628
0.88821
0.871519
0.848358
0.826773
0.823563
0.839619
0.821413
0.712391
0.564263
0.464104
0.434569
0.447818
0.998839
0.999289
0.999546
0.999642
0.999672
0.999673
0.999652
0.999614
0.999566
0.999514
0.999461
0.999407
0.99935
0.999288
0.99922
0.999144
0.999056
0.998955
0.998838
0.998698
0.998534
0.998342
0.998121
0.997868
0.997579
0.997253
0.996883
0.996468
0.996002
0.995483
0.994904
0.994262
0.993553
0.992771
0.991914
0.990975
0.98995
0.988836
0.987635
0.98635
0.984986
0.983549
0.982049
0.980493
0.978889
0.977247
0.97558
0.973899
0.972216
0.970538
0.968873
0.96723
0.965618
0.964042
0.962498
0.961001
0.959571
0.958196
0.956836
0.955444
0.953977
0.952403
0.950681
0.948759
0.94657
0.944029
0.941035
0.93745
0.933187
0.928072
0.92194
0.914607
0.906045
0.896357
0.884605
0.867947
0.844773
0.821814
0.814989
0.828715
0.818675
0.725562
0.583295
0.476516
0.436163
0.445572
0.998826
0.999274
0.999538
0.999639
0.999672
0.999676
0.999656
0.999619
0.999572
0.99952
0.999468
0.999414
0.999358
0.999297
0.999231
0.999156
0.999071
0.998973
0.998859
0.998723
0.998563
0.998376
0.998162
0.997915
0.997635
0.997317
0.996958
0.996554
0.996101
0.995597
0.995035
0.994411
0.993724
0.992967
0.992138
0.99123
0.990242
0.989169
0.988005
0.986755
0.985422
0.984013
0.982538
0.981005
0.979421
0.977798
0.976147
0.97448
0.972807
0.971137
0.969478
0.967835
0.966219
0.964634
0.963076
0.961557
0.960094
0.95868
0.957276
0.955833
0.954305
0.952654
0.950838
0.948805
0.946483
0.943783
0.940602
0.936798
0.932273
0.926873
0.920416
0.912744
0.903762
0.893611
0.881538
0.864934
0.841884
0.817852
0.807624
0.81835
0.814649
0.73728
0.603152
0.491368
0.440506
0.442024
0.998812
0.999258
0.99953
0.999635
0.999671
0.999677
0.999659
0.999623
0.999576
0.999525
0.999473
0.999419
0.999364
0.999304
0.999239
0.999166
0.999082
0.998987
0.998876
0.998744
0.998588
0.998406
0.998197
0.997957
0.997684
0.997374
0.997024
0.996631
0.996191
0.9957
0.995154
0.994549
0.993882
0.993149
0.992346
0.991469
0.990516
0.989483
0.988366
0.98716
0.985867
0.984496
0.983054
0.981551
0.979994
0.978395
0.976766
0.975119
0.973463
0.971806
0.970156
0.968519
0.966903
0.965315
0.963747
0.962209
0.960719
0.959271
0.957831
0.956346
0.954768
0.953056
0.951169
0.949047
0.946619
0.94379
0.940456
0.936478
0.931734
0.926094
0.919376
0.911376
0.90202
0.891449
0.87908
0.862554
0.839743
0.814933
0.801615
0.808895
0.8097
0.747292
0.623333
0.508453
0.447651
0.439414
0.998796
0.999243
0.999521
0.999631
0.99967
0.999677
0.999661
0.999626
0.99958
0.999529
0.999476
0.999423
0.999368
0.999309
0.999245
0.999173
0.999091
0.998997
0.998889
0.99876
0.998608
0.99843
0.998226
0.997992
0.997725
0.997423
0.997082
0.996699
0.996271
0.995793
0.995262
0.994674
0.994027
0.993317
0.992539
0.991692
0.990772
0.989777
0.988703
0.987547
0.986307
0.984982
0.983584
0.982119
0.980596
0.979029
0.977429
0.975806
0.974171
0.972532
0.970896
0.969268
0.967657
0.966068
0.964493
0.96294
0.961427
0.95995
0.958478
0.95696
0.955343
0.953587
0.951649
0.949463
0.946961
0.944038
0.94059
0.936482
0.93158
0.925747
0.918804
0.910539
0.900866
0.889927
0.877293
0.860872
0.838399
0.813102
0.797083
0.800694
0.80428
0.75554
0.643362
0.527443
0.457559
0.438961
0.99878
0.999228
0.999513
0.999626
0.999668
0.999677
0.999661
0.999627
0.999582
0.999531
0.999479
0.999425
0.99937
0.999312
0.999248
0.999177
0.999097
0.999005
0.998898
0.998772
0.998623
0.99845
0.99825
0.998021
0.997761
0.997465
0.997133
0.996759
0.996341
0.995875
0.995358
0.994787
0.994159
0.993469
0.992717
0.991897
0.991008
0.990049
0.989017
0.987908
0.986722
0.985456
0.98411
0.982692
0.981214
0.979684
0.97812
0.976527
0.974919
0.973303
0.971684
0.970068
0.968463
0.966874
0.965294
0.963727
0.962191
0.960687
0.959186
0.957638
0.955995
0.954215
0.952245
0.950024
0.947478
0.944503
0.940987
0.936797
0.93179
0.925821
0.918716
0.910253
0.900337
0.889097
0.876239
0.859938
0.837888
0.812374
0.79407
0.793997
0.798862
0.762103
0.662769
0.548044
0.470159
0.441237
0.998763
0.999212
0.999503
0.999621
0.999665
0.999675
0.999661
0.999627
0.999582
0.999532
0.999479
0.999426
0.999371
0.999313
0.999249
0.999179
0.9991
0.999009
0.998904
0.998781
0.998634
0.998464
0.998268
0.998044
0.997789
0.9975
0.997175
0.996809
0.996401
0.995947
0.995443
0.994887
0.994276
0.993607
0.992878
0.992084
0.991226
0.9903
0.989306
0.988242
0.987105
0.985896
0.984614
0.983253
0.981827
0.980346
0.978822
0.977265
0.975689
0.974099
0.972501
0.970898
0.969298
0.967708
0.966121
0.964539
0.962979
0.961447
0.959917
0.958347
0.956687
0.95489
0.952906
0.950682
0.948128
0.945144
0.941606
0.937391
0.932343
0.926304
0.919105
0.910524
0.900446
0.888989
0.875964
0.85981
0.838251
0.812767
0.792625
0.78901
0.793915
0.767225
0.681192
0.569905
0.485443
0.446551
0.998745
0.999197
0.999494
0.999615
0.999661
0.999673
0.99966
0.999627
0.999582
0.999531
0.999479
0.999425
0.99937
0.999312
0.999249
0.999179
0.9991
0.99901
0.998907
0.998785
0.998641
0.998474
0.998281
0.998061
0.997811
0.997528
0.997209
0.996851
0.996452
0.996008
0.995517
0.994975
0.99438
0.99373
0.993022
0.992253
0.991423
0.99053
0.989572
0.988548
0.987458
0.9863
0.985076
0.983781
0.982416
0.98099
0.979515
0.978001
0.976461
0.974899
0.97332
0.97173
0.970134
0.968539
0.96694
0.965337
0.963746
0.962179
0.96062
0.959031
0.957358
0.955556
0.953581
0.951373
0.948841
0.945897
0.942394
0.938211
0.933193
0.927163
0.91995
0.911335
0.901192
0.889608
0.876487
0.860519
0.839516
0.814288
0.792749
0.78588
0.789893
0.771286
0.698467
0.592818
0.503572
0.455109
0.998725
0.999182
0.999484
0.999609
0.999657
0.99967
0.999657
0.999625
0.99958
0.99953
0.999477
0.999423
0.999367
0.999309
0.999246
0.999176
0.999097
0.999008
0.998906
0.998785
0.998643
0.998479
0.998289
0.998073
0.997826
0.997548
0.997235
0.996884
0.996493
0.996058
0.995578
0.995049
0.99447
0.993837
0.993149
0.992404
0.9916
0.990736
0.989813
0.988827
0.987779
0.986668
0.985497
0.98426
0.982959
0.981599
0.980176
0.978709
0.977208
0.975676
0.974118
0.972539
0.970943
0.969339
0.967721
0.96609
0.964461
0.962854
0.961253
0.959632
0.957938
0.956132
0.954186
0.952017
0.949549
0.946676
0.943267
0.939185
0.934272
0.928332
0.921198
0.912655
0.90255
0.890945
0.877816
0.862081
0.841691
0.81692
0.794425
0.784696
0.78718
0.774761
0.714544
0.616447
0.524484
0.467415
0.998705
0.999166
0.999474
0.999602
0.999651
0.999665
0.999653
0.999622
0.999577
0.999526
0.999473
0.999419
0.999363
0.999304
0.99924
0.99917
0.999092
0.999004
0.998902
0.998782
0.998642
0.998479
0.998292
0.998078
0.997835
0.997561
0.997253
0.996908
0.996524
0.996098
0.995628
0.995111
0.994545
0.993928
0.993259
0.992535
0.991756
0.99092
0.990028
0.989078
0.988069
0.987002
0.985877
0.984692
0.983447
0.982145
0.980783
0.97937
0.977907
0.976404
0.974865
0.973291
0.971689
0.970066
0.968417
0.966744
0.965063
0.963397
0.961739
0.960072
0.958357
0.956561
0.95463
0.952503
0.950133
0.947378
0.944124
0.940195
0.935469
0.929721
0.922766
0.914402
0.90446
0.89296
0.879931
0.864504
0.844795
0.820663
0.797613
0.785467
0.786076
0.778165
0.72954
0.640502
0.548345
0.48399
0.998683
0.99915
0.999463
0.999594
0.999645
0.99966
0.999649
0.999617
0.999573
0.999522
0.999468
0.999413
0.999356
0.999297
0.999233
0.999163
0.999084
0.998996
0.998894
0.998775
0.998636
0.998474
0.998289
0.998078
0.997838
0.997567
0.997264
0.996924
0.996546
0.996127
0.995666
0.995159
0.994606
0.994004
0.993352
0.992648
0.991891
0.991081
0.990218
0.9893
0.988327
0.987299
0.986217
0.985078
0.983882
0.98263
0.981319
0.979953
0.978533
0.977063
0.975543
0.973969
0.97235
0.970694
0.969
0.967266
0.965509
0.963755
0.962012
0.960272
0.958511
0.956703
0.95479
0.95274
0.950467
0.947847
0.944801
0.941116
0.936651
0.931189
0.92453
0.91647
0.906811
0.895552
0.882749
0.867706
0.848728
0.825376
0.802121
0.788008
0.786605
0.781761
0.743371
0.664186
0.574046
0.504209
0.99866
0.999134
0.999452
0.999586
0.999638
0.999654
0.999643
0.999612
0.999567
0.999516
0.999462
0.999406
0.999348
0.999288
0.999223
0.999152
0.999073
0.998985
0.998883
0.998764
0.998626
0.998465
0.998281
0.998072
0.997835
0.997567
0.997266
0.996931
0.996558
0.996146
0.995692
0.995195
0.994652
0.994064
0.993427
0.99274
0.992005
0.991218
0.990382
0.989494
0.988554
0.987562
0.986518
0.98542
0.984266
0.983056
0.981786
0.980458
0.979069
0.977619
0.976106
0.974522
0.972875
0.971171
0.96941
0.967593
0.965733
0.963866
0.962012
0.960181
0.958343
0.956466
0.954535
0.952538
0.950373
0.947956
0.94513
0.941733
0.937622
0.932571
0.926311
0.918679
0.909462
0.898585
0.886134
0.871575
0.853386
0.830912
0.807741
0.792095
0.788697
0.785733
0.756012
0.68682
0.600443
0.998636
0.999118
0.999441
0.999577
0.99963
0.999646
0.999636
0.999605
0.99956
0.999509
0.999453
0.999397
0.999338
0.999277
0.999211
0.99914
0.99906
0.99897
0.998868
0.99875
0.998611
0.998452
0.998269
0.998061
0.997825
0.997559
0.997262
0.99693
0.996562
0.996155
0.995707
0.995218
0.994685
0.994107
0.993484
0.992814
0.992097
0.991332
0.99052
0.989659
0.988749
0.987789
0.986779
0.985717
0.9846
0.983426
0.98219
0.980891
0.979523
0.978083
0.976563
0.974957
0.973265
0.971494
0.969644
0.967713
0.965716
0.963688
0.961662
0.959659
0.957678
0.95571
0.953763
0.951779
0.949673
0.947433
0.94487
0.941865
0.93814
0.933588
0.927878
0.920819
0.912172
0.901854
0.889929
0.875962
0.858647
0.998611
0.999101
0.999429
0.999567
0.999621
0.999638
0.999627
0.999597
0.999552
0.9995
0.999444
0.999386
0.999326
0.999264
0.999197
0.999124
0.999044
0.998953
0.998851
0.998732
0.998593
0.998434
0.998251
0.998044
0.997809
0.997545
0.99725
0.996921
0.996556
0.996153
0.995711
0.995228
0.994703
0.994136
0.993524
0.992868
0.992167
0.991422
0.990631
0.989795
0.988912
0.987981
0.987002
0.985972
0.984886
0.983742
0.982534
0.981256
0.979901
0.978461
0.976926
0.975285
0.973536
0.971682
0.969722
0.967655
0.96549
0.963262
0.961011
0.95877
0.956554
0.954377
0.952266
0.950212
0.948186
0.946111
0.943761
0.941134
0.93791
0.933964
0.928884
0.92255
0.914699
0.905101
0.893866
0.88065
0.864329
0.998584
0.999084
0.999416
0.999556
0.999611
0.999628
0.999618
0.999587
0.999542
0.999489
0.999432
0.999374
0.999313
0.999249
0.999181
0.999107
0.999025
0.998933
0.998829
0.99871
0.998571
0.998411
0.998229
0.998022
0.997788
0.997525
0.997231
0.996903
0.996541
0.996141
0.995704
0.995226
0.994708
0.994148
0.993547
0.992903
0.992217
0.991488
0.990717
0.989902
0.989043
0.988138
0.987186
0.986183
0.985125
0.984007
0.98282
0.981557
0.980208
0.978762
0.977203
0.975518
0.973701