/*--------------------------------*- C++ -*----------------------------------*\
  =========                 |
  \\      /  F ield         | OpenFOAM: The Open Source CFD Toolbox
   \\    /   O peration     | Website:  https://openfoam.org
    \\  /    A nd           | Version:  9
     \\/     M anipulation  |
\*---------------------------------------------------------------------------*/
FoamFile
{
    format      ascii;
    class       volScalarField;
    location    "2250";
    object      k;
}
// * * * * * * * * * * * * * * * * * * * * * * * * * * * * * * * * * * * * * //

dimensions      [0 2 -2 0 0 0 0];

internalField   nonuniform List<scalar> 
13617
(
3.65549e-06
1.03775e-05
1.08544e-05
1.13518e-05
1.18693e-05
1.2405e-05
1.29588e-05
1.35305e-05
1.41198e-05
1.47258e-05
1.53485e-05
1.59879e-05
1.6643e-05
1.73135e-05
1.79991e-05
1.86986e-05
1.94121e-05
2.01383e-05
2.08763e-05
2.16251e-05
2.23837e-05
2.31513e-05
2.39266e-05
2.47084e-05
2.54959e-05
2.62873e-05
2.70819e-05
2.78787e-05
2.86762e-05
2.94735e-05
3.02696e-05
3.1063e-05
3.18527e-05
3.26382e-05
3.34191e-05
3.41941e-05
3.49627e-05
3.57239e-05
3.6478e-05
3.7224e-05
3.79612e-05
3.86907e-05
3.94117e-05
4.0124e-05
4.08281e-05
4.15233e-05
4.22101e-05
4.28885e-05
4.35577e-05
4.42176e-05
4.4867e-05
4.55068e-05
4.61369e-05
4.67563e-05
4.73661e-05
4.79684e-05
4.85623e-05
4.91486e-05
4.97293e-05
5.03059e-05
5.08817e-05
5.14583e-05
5.20368e-05
5.26212e-05
5.32149e-05
5.38211e-05
5.44414e-05
5.50767e-05
5.57296e-05
5.64017e-05
5.70945e-05
5.78127e-05
5.85643e-05
5.93623e-05
6.02299e-05
6.12614e-05
6.26314e-05
6.45736e-05
6.69594e-05
6.97727e-05
7.3289e-05
7.88597e-05
9.09549e-05
0.000113297
0.00015944
0.000228023
3.60572e-06
1.07165e-05
1.12052e-05
1.17102e-05
1.22348e-05
1.27773e-05
1.33373e-05
1.39139e-05
1.4507e-05
1.51166e-05
1.57419e-05
1.63825e-05
1.70379e-05
1.77074e-05
1.83903e-05
1.90859e-05
1.97935e-05
2.05125e-05
2.12417e-05
2.19798e-05
2.27262e-05
2.34797e-05
2.4239e-05
2.50033e-05
2.57711e-05
2.65417e-05
2.73133e-05
2.80854e-05
2.88569e-05
2.96262e-05
3.03927e-05
3.11554e-05
3.19132e-05
3.26654e-05
3.34115e-05
3.41512e-05
3.48836e-05
3.56083e-05
3.63246e-05
3.70326e-05
3.7732e-05
3.84229e-05
3.91051e-05
3.9779e-05
4.04456e-05
4.11031e-05
4.17526e-05
4.23944e-05
4.3028e-05
4.36531e-05
4.42694e-05
4.48769e-05
4.54751e-05
4.60655e-05
4.66484e-05
4.72238e-05
4.77924e-05
4.83559e-05
4.89161e-05
4.94742e-05
5.00324e-05
5.05932e-05
5.11595e-05
5.1734e-05
5.23191e-05
5.29172e-05
5.35313e-05
5.41639e-05
5.48159e-05
5.54886e-05
5.61843e-05
5.69055e-05
5.76614e-05
5.84667e-05
5.93397e-05
6.03575e-05
6.166e-05
6.34968e-05
6.58328e-05
6.87146e-05
7.25209e-05
7.79353e-05
9.22354e-05
0.000116323
0.000162678
0.000231887
4.20569e-06
1.11221e-05
1.16222e-05
1.21342e-05
1.26653e-05
1.32136e-05
1.37783e-05
1.43591e-05
1.49556e-05
1.55666e-05
1.61925e-05
1.68323e-05
1.7485e-05
1.81508e-05
1.88285e-05
1.95174e-05
2.02166e-05
2.0925e-05
2.16421e-05
2.23665e-05
2.30972e-05
2.38333e-05
2.45734e-05
2.53163e-05
2.60615e-05
2.68075e-05
2.75529e-05
2.82969e-05
2.90388e-05
2.9777e-05
3.05112e-05
3.124e-05
3.19628e-05
3.2679e-05
3.33885e-05
3.40906e-05
3.47846e-05
3.54703e-05
3.61475e-05
3.68162e-05
3.74761e-05
3.8127e-05
3.87701e-05
3.94053e-05
4.0033e-05
4.0653e-05
4.12652e-05
4.18698e-05
4.24678e-05
4.3058e-05
4.36402e-05
4.42152e-05
4.47825e-05
4.53433e-05
4.58979e-05
4.64468e-05
4.69908e-05
4.75311e-05
4.80699e-05
4.86089e-05
4.91491e-05
4.96942e-05
5.02464e-05
5.08078e-05
5.1382e-05
5.19713e-05
5.25779e-05
5.32043e-05
5.38516e-05
5.45217e-05
5.52156e-05
5.59355e-05
5.66906e-05
5.7496e-05
5.83677e-05
5.93613e-05
6.059e-05
6.23014e-05
6.45766e-05
6.75647e-05
7.159e-05
7.62938e-05
9.43034e-05
0.000121317
0.000168516
0.000234012
4.99452e-06
1.15653e-05
1.20776e-05
1.2596e-05
1.31329e-05
1.36861e-05
1.42546e-05
1.48382e-05
1.54356e-05
1.60474e-05
1.66721e-05
1.73091e-05
1.79581e-05
1.86181e-05
1.92882e-05
1.99677e-05
2.06563e-05
2.13525e-05
2.20553e-05
2.27633e-05
2.3476e-05
2.41919e-05
2.49101e-05
2.56298e-05
2.63494e-05
2.70684e-05
2.77851e-05
2.84989e-05
2.92088e-05
2.99144e-05
3.06145e-05
3.13078e-05
3.19943e-05
3.26737e-05
3.33449e-05
3.40083e-05
3.46634e-05
3.53094e-05
3.5947e-05
3.65758e-05
3.71956e-05
3.78075e-05
3.84113e-05
3.90079e-05
3.95972e-05
4.01789e-05
4.07547e-05
4.13243e-05
4.18872e-05
4.24432e-05
4.29929e-05
4.35367e-05
4.40742e-05
4.46052e-05
4.51318e-05
4.56549e-05
4.61741e-05
4.66916e-05
4.72095e-05
4.77288e-05
4.82517e-05
4.87804e-05
4.93169e-05
4.98654e-05
5.04282e-05
5.10067e-05
5.1604e-05
5.2222e-05
5.28629e-05
5.35272e-05
5.42153e-05
5.49306e-05
5.56811e-05
5.64813e-05
5.73459e-05
5.83166e-05
5.94848e-05
6.10644e-05
6.32443e-05
6.63554e-05
7.04326e-05
7.48921e-05
9.77342e-05
0.000127541
0.000175053
0.000228592
5.87433e-06
1.20479e-05
1.25668e-05
1.30907e-05
1.36322e-05
1.41893e-05
1.47603e-05
1.53451e-05
1.59429e-05
1.65527e-05
1.71743e-05
1.7807e-05
1.84496e-05
1.91014e-05
1.97623e-05
2.04309e-05
2.1106e-05
2.17866e-05
2.24723e-05
2.31619e-05
2.38539e-05
2.45474e-05
2.52416e-05
2.59351e-05
2.66272e-05
2.73166e-05
2.80026e-05
2.86845e-05
2.93612e-05
3.00318e-05
3.06956e-05
3.13524e-05
3.20014e-05
3.26421e-05
3.32747e-05
3.38987e-05
3.4514e-05
3.512e-05
3.57175e-05
3.63067e-05
3.6887e-05
3.74595e-05
3.80245e-05
3.8583e-05
3.91348e-05
3.96799e-05
4.02197e-05
4.07537e-05
4.12825e-05
4.1806e-05
4.23237e-05
4.28363e-05
4.33444e-05
4.38482e-05
4.43488e-05
4.48461e-05
4.53416e-05
4.58371e-05
4.6334e-05
4.68334e-05
4.73386e-05
4.78506e-05
4.83717e-05
4.89059e-05
4.94556e-05
5.0022e-05
5.06087e-05
5.12166e-05
5.1848e-05
5.25047e-05
5.31858e-05
5.3894e-05
5.46363e-05
5.54289e-05
5.62845e-05
5.7235e-05
5.83577e-05
5.9812e-05
6.19288e-05
6.5234e-05
6.91578e-05
7.38609e-05
9.92024e-05
0.000130842
0.000177453
0.00022056
6.81253e-06
1.25631e-05
1.30903e-05
1.36186e-05
1.41637e-05
1.47226e-05
1.52945e-05
1.58787e-05
1.64745e-05
1.7081e-05
1.76975e-05
1.83232e-05
1.89572e-05
1.95989e-05
2.02473e-05
2.09014e-05
2.15606e-05
2.22238e-05
2.289e-05
2.35578e-05
2.42263e-05
2.48945e-05
2.55618e-05
2.62271e-05
2.68892e-05
2.75471e-05
2.82002e-05
2.88479e-05
2.9489e-05
3.01232e-05
3.07496e-05
3.13681e-05
3.19783e-05
3.25797e-05
3.31724e-05
3.37561e-05
3.43308e-05
3.48971e-05
3.54548e-05
3.60038e-05
3.65446e-05
3.70782e-05
3.76048e-05
3.81251e-05
3.86399e-05
3.91493e-05
3.96536e-05
4.01533e-05
4.06489e-05
4.11403e-05
4.16279e-05
4.2111e-05
4.25907e-05
4.3068e-05
4.35425e-05
4.4015e-05
4.44876e-05
4.49612e-05
4.54372e-05
4.59178e-05
4.6405e-05
4.68997e-05
4.74053e-05
4.7925e-05
4.84608e-05
4.90144e-05
4.9589e-05
5.01854e-05
5.08064e-05
5.14529e-05
5.21248e-05
5.2824e-05
5.35576e-05
5.43415e-05
5.51855e-05
5.61175e-05
5.72042e-05
5.85446e-05
6.07067e-05
6.43123e-05
6.79664e-05
7.32514e-05
9.85817e-05
0.000131396
0.000176609
0.00021351
7.81368e-06
1.31164e-05
1.36503e-05
1.41814e-05
1.47279e-05
1.52871e-05
1.5858e-05
1.64396e-05
1.70307e-05
1.76309e-05
1.82398e-05
1.88559e-05
1.94784e-05
2.01065e-05
2.07401e-05
2.13771e-05
2.20171e-05
2.26594e-05
2.33027e-05
2.39459e-05
2.45882e-05
2.52286e-05
2.58663e-05
2.65003e-05
2.71298e-05
2.77538e-05
2.83717e-05
2.8983e-05
2.95865e-05
3.01822e-05
3.07698e-05
3.1349e-05
3.1919e-05
3.248e-05
3.30321e-05
3.35751e-05
3.41095e-05
3.46353e-05
3.51526e-05
3.56617e-05
3.61633e-05
3.66584e-05
3.71473e-05
3.76308e-05
3.8109e-05
3.85831e-05
3.90537e-05
3.95203e-05
3.99834e-05
4.04439e-05
4.09015e-05
4.13563e-05
4.18094e-05
4.22598e-05
4.27091e-05
4.31586e-05
4.36091e-05
4.4061e-05
4.45166e-05
4.49784e-05
4.54477e-05
4.59255e-05
4.64158e-05
4.69203e-05
4.74418e-05
4.79816e-05
4.85429e-05
4.91275e-05
4.97369e-05
5.03725e-05
5.10339e-05
5.17235e-05
5.24475e-05
5.3221e-05
5.40531e-05
5.49685e-05
5.60192e-05
5.72611e-05
5.95894e-05
6.35567e-05
6.69468e-05
7.29287e-05
9.73025e-05
0.000130464
0.000173162
0.000205508
8.89561e-06
1.37061e-05
1.42485e-05
1.47804e-05
1.53264e-05
1.58838e-05
1.64507e-05
1.70266e-05
1.76105e-05
1.82019e-05
1.87996e-05
1.94027e-05
2.00106e-05
2.06228e-05
2.12372e-05
2.18535e-05
2.24715e-05
2.30895e-05
2.37065e-05
2.4322e-05
2.49349e-05
2.5544e-05
2.61491e-05
2.67492e-05
2.73433e-05
2.79306e-05
2.8511e-05
2.9084e-05
2.96485e-05
3.02043e-05
3.07514e-05
3.12896e-05
3.18186e-05
3.23384e-05
3.28493e-05
3.33513e-05
3.38448e-05
3.43302e-05
3.48073e-05
3.52771e-05
3.57403e-05
3.61975e-05
3.66487e-05
3.70956e-05
3.75386e-05
3.79784e-05
3.84155e-05
3.88503e-05
3.92828e-05
3.97136e-05
4.01424e-05
4.05696e-05
4.09964e-05
4.1422e-05
4.18472e-05
4.22742e-05
4.27033e-05
4.31348e-05
4.35712e-05
4.40143e-05
4.44661e-05
4.49276e-05
4.5402e-05
4.58917e-05
4.63991e-05
4.69252e-05
4.7474e-05
4.80456e-05
4.86428e-05
4.92668e-05
4.9917e-05
5.0596e-05
5.13082e-05
5.20708e-05
5.28922e-05
5.37893e-05
5.47971e-05
5.59663e-05
5.85455e-05
6.28165e-05
6.59556e-05
7.26488e-05
9.60152e-05
0.000128617
0.000167275
0.000196002
1.00325e-05
1.43421e-05
1.48885e-05
1.54184e-05
1.59609e-05
1.65128e-05
1.70728e-05
1.764e-05
1.82136e-05
1.87922e-05
1.93754e-05
1.99621e-05
2.05511e-05
2.11421e-05
2.17347e-05
2.23269e-05
2.29185e-05
2.35087e-05
2.40962e-05
2.46802e-05
2.52602e-05
2.58353e-05
2.64047e-05
2.69679e-05
2.75241e-05
2.80727e-05
2.86133e-05
2.91459e-05
2.96691e-05
3.01833e-05
3.0689e-05
3.11854e-05
3.16721e-05
3.21502e-05
3.26197e-05
3.30802e-05
3.3533e-05
3.39781e-05
3.44156e-05
3.48464e-05
3.52714e-05
3.56913e-05
3.61065e-05
3.65181e-05
3.69268e-05
3.73333e-05
3.77383e-05
3.81422e-05
3.8545e-05
3.89472e-05
3.93488e-05
3.97497e-05
4.01509e-05
4.05529e-05
4.09557e-05
4.13611e-05
4.17695e-05
4.21817e-05
4.25996e-05
4.30252e-05
4.34605e-05
4.39067e-05
4.43658e-05
4.48404e-05
4.53333e-05
4.58463e-05
4.63815e-05
4.69403e-05
4.7525e-05
4.81364e-05
4.87752e-05
4.94419e-05
5.01418e-05
5.08944e-05
5.17043e-05
5.25783e-05
5.35336e-05
5.46743e-05
5.75351e-05
6.19441e-05
6.48187e-05
7.24535e-05
9.49217e-05
0.000126233
0.000160186
0.000185586
1.12564e-05
1.5027e-05
1.5572e-05
1.60966e-05
1.66322e-05
1.71754e-05
1.77245e-05
1.82791e-05
1.88376e-05
1.93994e-05
1.99639e-05
2.05297e-05
2.10959e-05
2.16625e-05
2.22283e-05
2.27921e-05
2.33538e-05
2.3912e-05
2.44659e-05
2.50155e-05
2.5559e-05
2.60963e-05
2.66271e-05
2.71504e-05
2.7666e-05
2.81733e-05
2.86722e-05
2.91624e-05
2.96433e-05
3.01151e-05
3.05778e-05
3.10314e-05
3.14757e-05
3.19115e-05
3.23387e-05
3.27582e-05
3.31703e-05
3.35752e-05
3.3974e-05
3.43666e-05
3.47541e-05
3.51377e-05
3.55176e-05
3.58952e-05
3.62712e-05
3.66459e-05
3.70203e-05
3.73942e-05
3.77684e-05
3.81437e-05
3.85192e-05
3.88953e-05
3.9273e-05
3.96525e-05
4.00339e-05
4.04184e-05
4.08069e-05
4.12009e-05
4.16016e-05
4.20105e-05
4.24295e-05
4.28608e-05
4.33052e-05
4.37653e-05
4.42447e-05
4.47438e-05
4.52651e-05
4.58113e-05
4.63828e-05
4.69813e-05
4.76072e-05
4.82611e-05
4.8948e-05
4.96875e-05
5.04849e-05
5.13328e-05
5.22245e-05
5.34032e-05
5.65171e-05
6.08273e-05
6.35842e-05
7.20161e-05
9.37325e-05
0.000123301
0.000152502
0.00017645
1.2563e-05
1.57655e-05
1.63033e-05
1.68188e-05
1.73429e-05
1.78724e-05
1.84058e-05
1.8943e-05
1.94825e-05
2.00227e-05
2.05634e-05
2.11036e-05
2.16424e-05
2.21795e-05
2.27141e-05
2.32447e-05
2.37718e-05
2.4294e-05
2.48107e-05
2.53212e-05
2.58249e-05
2.63218e-05
2.6811e-05
2.72919e-05
2.77644e-05
2.82283e-05
2.86834e-05
2.91294e-05
2.95666e-05
2.99945e-05
3.04132e-05
3.08234e-05
3.12251e-05
3.16184e-05
3.20039e-05
3.23824e-05
3.27544e-05
3.31204e-05
3.34808e-05
3.38362e-05
3.41874e-05
3.45354e-05
3.48813e-05
3.5226e-05
3.55704e-05
3.59147e-05
3.62599e-05
3.66061e-05
3.69533e-05
3.73027e-05
3.76539e-05
3.80066e-05
3.83619e-05
3.87198e-05
3.90812e-05
3.94465e-05
3.98164e-05
4.01929e-05
4.05768e-05
4.09697e-05
4.13735e-05
4.17897e-05
4.22199e-05
4.2666e-05
4.31315e-05
4.36172e-05
4.41252e-05
4.46576e-05
4.52152e-05
4.57997e-05
4.6411e-05
4.7051e-05
4.77233e-05
4.8448e-05
4.92312e-05
5.00507e-05
5.08712e-05
5.21667e-05
5.54579e-05
5.94532e-05
6.2191e-05
7.06355e-05
9.20898e-05
0.000119679
0.000144673
0.000167778
1.39783e-05
1.65537e-05
1.7083e-05
1.75834e-05
1.80911e-05
1.86019e-05
1.91149e-05
1.96292e-05
2.01429e-05
2.06562e-05
2.11683e-05
2.16775e-05
2.21834e-05
2.26863e-05
2.31849e-05
2.36781e-05
2.41661e-05
2.46482e-05
2.51234e-05
2.55916e-05
2.60522e-05
2.6505e-05
2.69496e-05
2.73855e-05
2.7813e-05
2.82318e-05
2.86414e-05
2.90422e-05
2.94341e-05
2.98171e-05
3.01919e-05
3.05583e-05
3.09168e-05
3.12681e-05
3.16127e-05
3.1951e-05
3.22835e-05
3.26108e-05
3.29336e-05
3.32529e-05
3.35694e-05
3.38839e-05
3.41975e-05
3.45112e-05
3.48253e-05
3.51404e-05
3.54577e-05
3.57776e-05
3.60998e-05
3.64248e-05
3.67528e-05
3.7084e-05
3.7418e-05
3.77557e-05
3.80981e-05
3.84453e-05
3.87979e-05
3.9158e-05
3.95259e-05
3.99036e-05
4.02926e-05
4.0694e-05
4.111e-05
4.15424e-05
4.19935e-05
4.24652e-05
4.29595e-05
4.34777e-05
4.40208e-05
4.45905e-05
4.51865e-05
4.5811e-05
4.6467e-05
4.7175e-05
4.79421e-05
4.87339e-05
4.94797e-05
5.09769e-05
5.43485e-05
5.7883e-05
6.05571e-05
6.86482e-05
9.01005e-05
0.000115433
0.000136818
0.000158014
1.54793e-05
1.73985e-05
1.79089e-05
1.83892e-05
1.88742e-05
1.93604e-05
1.98466e-05
2.03318e-05
2.08149e-05
2.12952e-05
2.17724e-05
2.22453e-05
2.27133e-05
2.31763e-05
2.36341e-05
2.40851e-05
2.45295e-05
2.49672e-05
2.53973e-05
2.58198e-05
2.62342e-05
2.66401e-05
2.70376e-05
2.74266e-05
2.78069e-05
2.81785e-05
2.85414e-05
2.88961e-05
2.92424e-05
2.95805e-05
2.99107e-05
3.02335e-05
3.05494e-05
3.08592e-05
3.11631e-05
3.14619e-05
3.17562e-05
3.20462e-05
3.23331e-05
3.26176e-05
3.29007e-05
3.31833e-05
3.3466e-05
3.37498e-05
3.40353e-05
3.43236e-05
3.4615e-05
3.491e-05
3.52088e-05
3.55111e-05
3.58175e-05
3.61278e-05
3.64423e-05
3.67617e-05
3.70862e-05
3.74163e-05
3.77527e-05
3.80968e-05
3.84495e-05
3.88125e-05
3.91869e-05
3.95743e-05
3.99766e-05
4.03951e-05
4.08322e-05
4.12894e-05
4.17687e-05
4.22717e-05
4.27991e-05
4.33532e-05
4.39336e-05
4.45416e-05
4.51814e-05
4.58723e-05
4.6623e-05
4.73857e-05
4.8056e-05
4.98442e-05
5.32223e-05
5.62152e-05
5.88976e-05
6.68542e-05
8.78677e-05
0.000110996
0.000128915
0.000147099
1.70846e-05
1.82945e-05
1.87812e-05
1.92344e-05
1.96904e-05
2.01453e-05
2.05976e-05
2.10474e-05
2.1493e-05
2.19339e-05
2.23702e-05
2.28008e-05
2.32247e-05
2.36427e-05
2.40541e-05
2.4458e-05
2.48553e-05
2.52447e-05
2.5626e-05
2.59993e-05
2.63644e-05
2.67211e-05
2.70693e-05
2.74093e-05
2.77413e-05
2.80649e-05
2.83802e-05
2.86879e-05
2.89886e-05
2.92817e-05
2.95678e-05
2.98479e-05
3.01222e-05
3.0391e-05
3.06553e-05
3.09158e-05
3.11727e-05
3.14272e-05
3.168e-05
3.19312e-05
3.21825e-05
3.24346e-05
3.2688e-05
3.2944e-05
3.32033e-05
3.34661e-05
3.3733e-05
3.40048e-05
3.42812e-05
3.45625e-05
3.48492e-05
3.51407e-05
3.5437e-05
3.57389e-05
3.60463e-05
3.63603e-05
3.66814e-05
3.70107e-05
3.73493e-05
3.76979e-05
3.80579e-05
3.84317e-05
3.88201e-05
3.92245e-05
3.96472e-05
4.00899e-05
4.05545e-05
4.10426e-05
4.15543e-05
4.20922e-05
4.26564e-05
4.32484e-05
4.38718e-05
4.45449e-05
4.52772e-05
4.60107e-05
4.66142e-05
4.87656e-05
5.21186e-05
5.45676e-05
5.7249e-05
6.53642e-05
8.5392e-05
0.000106351
0.00012111
0.000136099
1.88329e-05
1.92625e-05
1.97141e-05
2.01311e-05
2.05483e-05
2.09625e-05
2.13728e-05
2.17786e-05
2.21787e-05
2.25727e-05
2.2961e-05
2.33423e-05
2.37159e-05
2.40827e-05
2.44427e-05
2.47947e-05
2.5139e-05
2.54758e-05
2.58047e-05
2.61259e-05
2.64389e-05
2.67436e-05
2.70409e-05
2.73307e-05
2.76129e-05
2.78877e-05
2.81552e-05
2.84163e-05
2.86711e-05
2.89193e-05
2.91621e-05
2.94001e-05
2.96334e-05
2.9863e-05
3.0089e-05
3.03128e-05
3.05347e-05
3.07551e-05
3.09751e-05
3.11956e-05
3.14171e-05
3.16403e-05
3.18665e-05
3.20966e-05
3.23309e-05
3.257e-05
3.28145e-05
3.30648e-05
3.33209e-05
3.35829e-05
3.38509e-05
3.41244e-05
3.44041e-05
3.46899e-05
3.49816e-05
3.52804e-05
3.5587e-05
3.59022e-05
3.62267e-05
3.65621e-05
3.69089e-05
3.72692e-05
3.76437e-05
3.80342e-05
3.84431e-05
3.88714e-05
3.93211e-05
3.97944e-05
4.0291e-05
4.08129e-05
4.13611e-05
4.19377e-05
4.25455e-05
4.32029e-05
4.39141e-05
4.46149e-05
4.51829e-05
4.77104e-05
5.10137e-05
5.29883e-05
5.56999e-05
6.39737e-05
8.25637e-05
0.000101255
0.000113139
0.000125512
2.08238e-05
2.03326e-05
2.07364e-05
2.11033e-05
2.14686e-05
2.18298e-05
2.21862e-05
2.25363e-05
2.288e-05
2.32169e-05
2.35474e-05
2.38711e-05
2.41868e-05
2.44957e-05
2.47973e-05
2.50914e-05
2.53786e-05
2.56583e-05
2.5931e-05
2.61965e-05
2.64547e-05
2.6706e-05
2.69504e-05
2.71882e-05
2.74198e-05
2.76455e-05
2.78652e-05
2.80796e-05
2.8289e-05
2.84935e-05
2.86941e-05
2.88911e-05
2.90849e-05
2.92765e-05
2.94664e-05
2.9655e-05
2.98434e-05
3.0032e-05
3.02214e-05
3.04126e-05
3.06063e-05
3.08031e-05
3.1004e-05
3.12099e-05
3.14214e-05
3.16389e-05
3.18628e-05
3.20934e-05
3.23308e-05
3.2575e-05
3.28259e-05
3.30832e-05
3.33473e-05
3.36182e-05
3.38955e-05
3.41802e-05
3.44735e-05
3.47756e-05
3.5087e-05
3.54097e-05
3.57441e-05
3.60914e-05
3.64532e-05
3.68309e-05
3.72265e-05
3.76415e-05
3.80775e-05
3.85363e-05
3.90184e-05
3.95259e-05
4.00601e-05
4.06223e-05
4.12159e-05
4.18605e-05
4.25492e-05
4.32101e-05
4.38008e-05
4.66276e-05
4.98211e-05
5.14493e-05
5.42074e-05
6.24975e-05
7.94758e-05
9.56779e-05
0.000104799
0.000115296
2.30836e-05
2.1531e-05
2.18614e-05
2.21601e-05
2.24567e-05
2.27492e-05
2.3036e-05
2.33173e-05
2.35927e-05
2.3862e-05
2.4125e-05
2.43812e-05
2.46308e-05
2.48742e-05
2.51116e-05
2.53422e-05
2.55669e-05
2.57857e-05
2.59985e-05
2.62055e-05
2.64069e-05
2.66026e-05
2.6793e-05
2.69787e-05
2.71596e-05
2.7336e-05
2.75082e-05
2.76767e-05
2.78421e-05
2.80043e-05
2.81642e-05
2.83219e-05
2.84782e-05
2.86339e-05
2.87896e-05
2.89455e-05
2.91026e-05
2.92616e-05
2.94229e-05
2.9587e-05
2.97549e-05
2.99277e-05
3.01057e-05
3.02896e-05
3.04805e-05
3.06785e-05
3.08835e-05
3.10963e-05
3.13169e-05
3.15452e-05
3.17809e-05
3.20236e-05
3.22739e-05
3.25315e-05
3.2796e-05
3.30684e-05
3.33494e-05
3.36396e-05
3.39397e-05
3.42509e-05
3.45738e-05
3.49098e-05
3.52602e-05
3.56269e-05
3.60109e-05
3.6414e-05
3.68383e-05
3.72847e-05
3.77545e-05
3.825e-05
3.87718e-05
3.93217e-05
3.99039e-05
4.05375e-05
4.12012e-05
4.18181e-05
4.25012e-05
4.54799e-05
4.84594e-05
4.9882e-05
5.27615e-05
6.08049e-05
7.61108e-05
8.97872e-05
9.66404e-05
0.000105472
2.55428e-05
2.28095e-05
2.30438e-05
2.32558e-05
2.34677e-05
2.36768e-05
2.38815e-05
2.40826e-05
2.42788e-05
2.447e-05
2.46573e-05
2.48394e-05
2.50163e-05
2.51895e-05
2.53582e-05
2.55219e-05
2.56817e-05
2.58376e-05
2.59894e-05
2.61372e-05
2.62814e-05
2.64219e-05
2.65589e-05
2.66931e-05
2.68247e-05
2.69535e-05
2.70802e-05
2.72054e-05
2.73286e-05
2.74506e-05
2.75722e-05
2.76937e-05
2.78153e-05
2.79378e-05
2.80617e-05
2.8188e-05
2.83169e-05
2.84489e-05
2.85848e-05
2.8725e-05
2.88704e-05
2.90218e-05
2.91795e-05
2.93444e-05
2.95172e-05
2.96978e-05
2.98866e-05
3.00842e-05
3.02904e-05
3.05048e-05
3.07276e-05
3.09577e-05
3.11963e-05
3.14426e-05
3.16965e-05
3.19585e-05
3.22291e-05
3.25095e-05
3.28003e-05
3.31022e-05
3.3416e-05
3.3743e-05
3.40846e-05
3.44421e-05
3.48171e-05
3.52108e-05
3.56252e-05
3.60621e-05
3.65224e-05
3.7008e-05
3.75201e-05
3.80599e-05
3.86334e-05
3.92575e-05
3.98951e-05
4.04633e-05
4.12966e-05
4.42784e-05
4.69358e-05
4.82594e-05
5.13661e-05
5.89212e-05
7.25369e-05
8.38159e-05
8.89277e-05
9.62165e-05
2.78661e-05
2.4023e-05
2.41464e-05
2.42634e-05
2.43822e-05
2.45013e-05
2.4619e-05
2.47345e-05
2.48483e-05
2.49598e-05
2.50695e-05
2.5177e-05
2.52816e-05
2.53842e-05
2.5485e-05
2.55838e-05
2.56808e-05
2.5776e-05
2.58695e-05
2.59612e-05
2.60516e-05
2.61405e-05
2.6228e-05
2.63149e-05
2.64011e-05
2.64868e-05
2.65721e-05
2.66577e-05
2.67435e-05
2.68298e-05
2.69174e-05
2.70068e-05
2.7098e-05
2.71915e-05
2.72882e-05
2.73885e-05
2.74929e-05
2.7602e-05
2.77164e-05
2.78364e-05
2.79627e-05
2.80958e-05
2.82366e-05
2.83858e-05
2.85438e-05
2.87106e-05
2.88864e-05
2.90718e-05
2.92663e-05
2.94697e-05
2.96823e-05
2.99033e-05
3.01327e-05
3.03702e-05
3.06159e-05
3.08701e-05
3.11337e-05
3.14071e-05
3.1691e-05
3.19866e-05
3.22939e-05
3.26145e-05
3.295e-05
3.3301e-05
3.36693e-05
3.40565e-05
3.44641e-05
3.48937e-05
3.53463e-05
3.58237e-05
3.63273e-05
3.68589e-05
3.74253e-05
3.80368e-05
3.86512e-05
3.91689e-05
4.0182e-05
4.30665e-05
4.53293e-05
4.6631e-05
4.99396e-05
5.68379e-05
6.88569e-05
7.7973e-05
8.17462e-05
8.76386e-05
2.96588e-05
2.4965e-05
2.4976e-05
2.50026e-05
2.50347e-05
2.50699e-05
2.51064e-05
2.51444e-05
2.51834e-05
2.52228e-05
2.52628e-05
2.53032e-05
2.53437e-05
2.5385e-05
2.54267e-05
2.54684e-05
2.55109e-05
2.55537e-05
2.55972e-05
2.5641e-05
2.56853e-05
2.57305e-05
2.57765e-05
2.58237e-05
2.58721e-05
2.59219e-05
2.5973e-05
2.60259e-05
2.60809e-05
2.61383e-05
2.61984e-05
2.62614e-05
2.6328e-05
2.63986e-05
2.64735e-05
2.65534e-05
2.66389e-05
2.67302e-05
2.68277e-05
2.6932e-05
2.70438e-05
2.71635e-05
2.72918e-05
2.74293e-05
2.75763e-05
2.7733e-05
2.78995e-05
2.80763e-05
2.8263e-05
2.84592e-05
2.86648e-05
2.88796e-05
2.9103e-05
2.93351e-05
2.95759e-05
2.98255e-05
3.00847e-05
3.03538e-05
3.06336e-05
3.09251e-05
3.1229e-05
3.15459e-05
3.18773e-05
3.22242e-05
3.25878e-05
3.29699e-05
3.33722e-05
3.37956e-05
3.42416e-05
3.47118e-05
3.52072e-05
3.57302e-05
3.62894e-05
3.68828e-05
3.7475e-05
3.7945e-05
3.91346e-05
4.18854e-05
4.37364e-05
4.50414e-05
4.84793e-05
5.46195e-05
6.5152e-05
7.241e-05
7.51857e-05
7.97951e-05
3.05847e-05
2.54422e-05
2.53616e-05
2.53172e-05
2.5281e-05
2.52511e-05
2.52252e-05
2.52029e-05
2.51842e-05
2.51683e-05
2.51555e-05
2.51454e-05
2.51372e-05
2.51316e-05
2.51285e-05
2.51277e-05
2.51295e-05
2.51333e-05
2.51393e-05
2.51478e-05
2.51585e-05
2.51715e-05
2.5187e-05
2.5205e-05
2.52257e-05
2.52493e-05
2.52759e-05
2.53055e-05
2.53385e-05
2.53752e-05
2.54158e-05
2.54605e-05
2.55099e-05
2.55644e-05
2.56244e-05
2.56905e-05
2.57632e-05
2.58425e-05
2.59289e-05
2.60232e-05
2.61258e-05
2.62371e-05
2.63575e-05
2.6488e-05
2.66286e-05
2.67794e-05
2.69406e-05
2.71126e-05
2.72949e-05
2.74875e-05
2.76898e-05
2.79014e-05
2.81225e-05
2.83522e-05
2.85909e-05
2.88385e-05
2.90955e-05
2.93627e-05
2.96406e-05
2.99302e-05
3.0232e-05
3.05466e-05
3.08749e-05
3.12181e-05
3.15778e-05
3.19552e-05
3.23517e-05
3.27685e-05
3.32071e-05
3.36688e-05
3.41548e-05
3.46675e-05
3.52173e-05
3.57875e-05
3.63566e-05
3.67816e-05
3.81276e-05
4.07483e-05
4.22067e-05
4.35135e-05
4.69794e-05
5.23663e-05
6.15461e-05
6.7248e-05
6.92611e-05
7.27887e-05
3.05796e-05
2.53794e-05
2.52343e-05
2.51447e-05
2.50662e-05
2.49955e-05
2.49307e-05
2.48713e-05
2.48169e-05
2.4767e-05
2.47213e-05
2.46797e-05
2.46417e-05
2.46077e-05
2.45776e-05
2.45508e-05
2.45275e-05
2.45076e-05
2.44911e-05
2.44782e-05
2.44686e-05
2.44624e-05
2.44597e-05
2.44605e-05
2.44649e-05
2.44729e-05
2.44851e-05
2.45013e-05
2.45215e-05
2.45464e-05
2.45761e-05
2.46106e-05
2.46508e-05
2.46967e-05
2.47488e-05
2.48077e-05
2.48737e-05
2.49472e-05
2.50284e-05
2.51181e-05
2.52168e-05
2.53244e-05
2.54416e-05
2.55694e-05
2.57077e-05
2.58566e-05
2.60165e-05
2.61872e-05
2.63687e-05
2.65605e-05
2.67622e-05
2.69736e-05
2.71944e-05
2.74238e-05
2.76623e-05
2.79093e-05
2.81658e-05
2.84323e-05
2.87092e-05
2.89972e-05
2.92967e-05
2.96087e-05
2.99337e-05
3.02726e-05
3.06273e-05
3.09985e-05
3.13874e-05
3.17957e-05
3.22247e-05
3.26755e-05
3.31495e-05
3.36493e-05
3.41871e-05
3.47292e-05
3.52736e-05
3.5657e-05
3.71356e-05
3.96356e-05
4.07453e-05
4.20532e-05
4.54611e-05
5.01763e-05
5.80815e-05
6.24946e-05
6.39034e-05
6.65637e-05
2.98128e-05
2.48282e-05
2.46505e-05
2.45402e-05
2.44431e-05
2.43546e-05
2.42728e-05
2.4197e-05
2.41271e-05
2.40624e-05
2.40025e-05
2.39474e-05
2.38966e-05
2.38504e-05
2.38084e-05
2.37705e-05
2.37367e-05
2.37069e-05
2.36812e-05
2.36592e-05
2.36412e-05
2.36272e-05
2.36171e-05
2.36111e-05
2.36091e-05
2.36113e-05
2.36182e-05
2.36294e-05
2.36451e-05
2.36661e-05
2.36921e-05
2.37235e-05
2.3761e-05
2.38047e-05
2.38551e-05
2.39124e-05
2.39772e-05
2.405e-05
2.41309e-05
2.42206e-05
2.43193e-05
2.44274e-05
2.45453e-05
2.46739e-05
2.48131e-05
2.49631e-05
2.51241e-05
2.52961e-05
2.54789e-05
2.56718e-05
2.58747e-05
2.60871e-05
2.63089e-05
2.65391e-05
2.67778e-05
2.70249e-05
2.72808e-05
2.75461e-05
2.78213e-05
2.81071e-05
2.84032e-05
2.87112e-05
2.90315e-05
2.93645e-05
2.97118e-05
3.00746e-05
3.04539e-05
3.08511e-05
3.12681e-05
3.17057e-05
3.21656e-05
3.26505e-05
3.3171e-05
3.36843e-05
3.42035e-05
3.45476e-05
3.61369e-05
3.8521e-05
3.93383e-05
4.06481e-05
4.39149e-05
4.80525e-05
5.47492e-05
5.80911e-05
5.90093e-05
6.10185e-05
2.85745e-05
2.39416e-05
2.3753e-05
2.36392e-05
2.35398e-05
2.34494e-05
2.33657e-05
2.32881e-05
2.32166e-05
2.31505e-05
2.30892e-05
2.3033e-05
2.29812e-05
2.29339e-05
2.28911e-05
2.28526e-05
2.28184e-05
2.27881e-05
2.2762e-05
2.274e-05
2.27219e-05
2.27079e-05
2.2698e-05
2.26924e-05
2.26911e-05
2.26941e-05
2.27017e-05
2.2714e-05
2.27311e-05
2.27533e-05
2.2781e-05
2.28141e-05
2.28534e-05
2.28992e-05
2.29518e-05
2.30115e-05
2.30788e-05
2.31543e-05
2.3238e-05
2.33303e-05
2.34319e-05
2.35429e-05
2.36638e-05
2.37952e-05
2.39371e-05
2.40898e-05
2.42534e-05
2.44278e-05
2.46126e-05
2.48076e-05
2.50122e-05
2.52259e-05
2.54484e-05
2.5679e-05
2.59175e-05
2.61637e-05
2.64183e-05
2.66814e-05
2.69537e-05
2.72355e-05
2.75269e-05
2.78292e-05
2.81424e-05
2.84675e-05
2.88056e-05
2.91579e-05
2.95258e-05
2.99107e-05
3.03139e-05
3.07368e-05
3.11815e-05
3.16509e-05
3.215e-05
3.26382e-05
3.31285e-05
3.34383e-05
3.51173e-05
3.73873e-05
3.79716e-05
3.92845e-05
4.23242e-05
4.59619e-05
5.15508e-05
5.39654e-05
5.45289e-05
5.60709e-05
2.7174e-05
2.28871e-05
2.2703e-05
2.25945e-05
2.25012e-05
2.24166e-05
2.23387e-05
2.22669e-05
2.22007e-05
2.21398e-05
2.20836e-05
2.20322e-05
2.19852e-05
2.19425e-05
2.19043e-05
2.18703e-05
2.18405e-05
2.18147e-05
2.17928e-05
2.17749e-05
2.1761e-05
2.17511e-05
2.17453e-05
2.17436e-05
2.17463e-05
2.17533e-05
2.17648e-05
2.17811e-05
2.18022e-05
2.18285e-05
2.18603e-05
2.18976e-05
2.19409e-05
2.19908e-05
2.20476e-05
2.21114e-05
2.21829e-05
2.22624e-05
2.235e-05
2.24463e-05
2.25518e-05
2.26666e-05
2.27912e-05
2.2926e-05
2.30711e-05
2.32269e-05
2.33931e-05
2.35698e-05
2.37567e-05
2.39533e-05
2.41591e-05
2.43734e-05
2.45958e-05
2.48257e-05
2.50629e-05
2.53074e-05
2.55594e-05
2.58189e-05
2.60869e-05
2.63634e-05
2.66485e-05
2.69435e-05
2.72486e-05
2.75646e-05
2.78925e-05
2.82335e-05
2.8589e-05
2.89603e-05
2.93494e-05
2.97577e-05
3.01871e-05
3.06419e-05
3.11174e-05
3.15838e-05
3.20428e-05
3.23256e-05
3.40748e-05
3.62318e-05
3.66424e-05
3.79339e-05
4.07029e-05
4.38872e-05
4.85101e-05
5.01609e-05
5.04498e-05
5.16744e-05
2.57899e-05
2.18037e-05
2.16273e-05
2.1526e-05
2.14408e-05
2.13638e-05
2.12934e-05
2.12288e-05
2.11696e-05
2.11154e-05
2.10659e-05
2.10209e-05
2.09799e-05
2.09432e-05
2.09108e-05
2.08824e-05
2.0858e-05
2.08375e-05
2.08207e-05
2.08079e-05
2.0799e-05
2.07941e-05
2.07931e-05
2.07962e-05
2.08036e-05
2.08152e-05
2.08314e-05
2.08522e-05
2.08778e-05
2.09086e-05
2.09447e-05
2.09866e-05
2.10345e-05
2.10888e-05
2.11498e-05
2.1218e-05
2.12938e-05
2.13774e-05
2.1469e-05
2.15692e-05
2.16784e-05
2.17967e-05
2.19245e-05
2.20624e-05
2.22103e-05
2.23685e-05
2.25367e-05
2.2715e-05
2.2903e-05
2.31004e-05
2.33063e-05
2.35203e-05
2.37418e-05
2.39702e-05
2.42051e-05
2.44465e-05
2.46947e-05
2.49498e-05
2.52123e-05
2.54826e-05
2.5761e-05
2.60481e-05
2.63444e-05
2.66508e-05
2.69683e-05
2.72978e-05
2.76408e-05
2.79993e-05
2.8375e-05
2.87693e-05
2.91841e-05
2.96259e-05
3.00772e-05
3.05242e-05
3.09515e-05
3.12134e-05
3.30147e-05
3.50588e-05
3.53469e-05
3.65968e-05
3.90586e-05
4.18381e-05
4.56659e-05
4.67096e-05
4.67849e-05
4.78094e-05
2.45248e-05
2.07615e-05
2.05939e-05
2.04985e-05
2.04201e-05
2.03498e-05
2.02855e-05
2.0227e-05
2.01735e-05
2.01248e-05
2.00806e-05
2.0041e-05
2.00053e-05
1.99734e-05
1.99456e-05
1.99218e-05
1.99019e-05
1.98856e-05
1.98731e-05
1.98646e-05
1.98599e-05
1.9859e-05
1.9862e-05
1.98691e-05
1.98803e-05
1.98959e-05
1.9916e-05
1.99407e-05
1.99702e-05
2.00048e-05
2.00448e-05
2.00904e-05
2.0142e-05
2.02001e-05
2.02648e-05
2.03366e-05
2.04159e-05
2.05028e-05
2.05978e-05
2.07011e-05
2.08133e-05
2.09344e-05
2.10647e-05
2.12048e-05
2.13547e-05
2.15143e-05
2.16836e-05
2.18627e-05
2.2051e-05
2.22482e-05
2.24536e-05
2.26664e-05
2.28861e-05
2.3112e-05
2.3344e-05
2.35819e-05
2.38257e-05
2.40757e-05
2.43324e-05
2.45962e-05
2.48674e-05
2.51465e-05
2.5434e-05
2.57307e-05
2.60379e-05
2.63564e-05
2.66881e-05
2.70345e-05
2.73975e-05
2.77788e-05
2.81804e-05
2.86101e-05
2.90378e-05
2.94671e-05
2.98608e-05
3.01097e-05
3.19442e-05
3.38761e-05
3.40799e-05
3.5268e-05
3.74243e-05
3.985e-05
4.3048e-05
4.36121e-05
4.35157e-05
4.44216e-05
2.33733e-05
1.97799e-05
1.96209e-05
1.95293e-05
1.94556e-05
1.93898e-05
1.93301e-05
1.92756e-05
1.92263e-05
1.91815e-05
1.9141e-05
1.91049e-05
1.90727e-05
1.90442e-05
1.90195e-05
1.89987e-05
1.89819e-05
1.89687e-05
1.89593e-05
1.89537e-05
1.89518e-05
1.89538e-05
1.89597e-05
1.89696e-05
1.89837e-05
1.90022e-05
1.90252e-05
1.90527e-05
1.90851e-05
1.91227e-05
1.91658e-05
1.92143e-05
1.92688e-05
1.93297e-05
1.93973e-05
1.9472e-05
1.95539e-05
1.96434e-05
1.97409e-05
1.98467e-05
1.9961e-05
2.00841e-05
2.02161e-05
2.03576e-05
2.05085e-05
2.06689e-05
2.08386e-05
2.10177e-05
2.12057e-05
2.1402e-05
2.16061e-05
2.18173e-05
2.20345e-05
2.22577e-05
2.24861e-05
2.27199e-05
2.29591e-05
2.32037e-05
2.34545e-05
2.37117e-05
2.39757e-05
2.42469e-05
2.45258e-05
2.48134e-05
2.51108e-05
2.5419e-05
2.57398e-05
2.60745e-05
2.64257e-05
2.67952e-05
2.71849e-05
2.76012e-05
2.80083e-05
2.84196e-05
2.87775e-05
2.90214e-05
3.08683e-05
3.26852e-05
3.28364e-05
3.39469e-05
3.58185e-05
3.79511e-05
4.06385e-05
4.08234e-05
4.06027e-05
4.1456e-05
2.23123e-05
1.8849e-05
1.86991e-05
1.86097e-05
1.85393e-05
1.84767e-05
1.842e-05
1.83686e-05
1.83219e-05
1.82798e-05
1.82419e-05
1.82081e-05
1.81781e-05
1.8152e-05
1.81295e-05
1.8111e-05
1.80963e-05
1.80852e-05
1.80779e-05
1.80744e-05
1.80746e-05
1.80786e-05
1.80865e-05
1.80985e-05
1.81148e-05
1.81356e-05
1.81607e-05
1.81904e-05
1.82251e-05
1.8265e-05
1.83102e-05
1.83611e-05
1.8418e-05
1.84811e-05
1.8551e-05
1.86279e-05
1.8712e-05
1.88036e-05
1.8903e-05
1.90106e-05
1.91266e-05
1.9251e-05
1.93842e-05
1.95265e-05
1.9678e-05
1.98387e-05
2.00084e-05
2.01869e-05
2.0374e-05
2.0569e-05
2.07712e-05
2.09799e-05
2.11945e-05
2.14145e-05
2.1639e-05
2.18684e-05
2.21027e-05
2.23419e-05
2.25865e-05
2.2837e-05