/*--------------------------------*- C++ -*----------------------------------*\
  =========                 |
  \\      /  F ield         | OpenFOAM: The Open Source CFD Toolbox
   \\    /   O peration     | Website:  https://openfoam.org
    \\  /    A nd           | Version:  9
     \\/     M anipulation  |
\*---------------------------------------------------------------------------*/
FoamFile
{
    format      ascii;
    class       volScalarField;
    location    "2250";
    object      nut;
}
// * * * * * * * * * * * * * * * * * * * * * * * * * * * * * * * * * * * * * //

dimensions      [0 2 -1 0 0 0 0];

internalField   nonuniform List<scalar> 
13617
(
6.39954e-07
8.20717e-07
8.21324e-07
8.2238e-07
8.23689e-07
8.25113e-07
8.26607e-07
8.28155e-07
8.29746e-07
8.31366e-07
8.33013e-07
8.3468e-07
8.36362e-07
8.3806e-07
8.39773e-07
8.41497e-07
8.43233e-07
8.44977e-07
8.46722e-07
8.48464e-07
8.50202e-07
8.51933e-07
8.53655e-07
8.55367e-07
8.57064e-07
8.58745e-07
8.60408e-07
8.62053e-07
8.63678e-07
8.65284e-07
8.6687e-07
8.68437e-07
8.69986e-07
8.71519e-07
8.73042e-07
8.74554e-07
8.76057e-07
8.77551e-07
8.79039e-07
8.80524e-07
8.82006e-07
8.83487e-07
8.84976e-07
8.86475e-07
8.87986e-07
8.89504e-07
8.91025e-07
8.92543e-07
8.94046e-07
8.95523e-07
8.96959e-07
8.98344e-07
8.99671e-07
9.00935e-07
9.02136e-07
9.03277e-07
9.04362e-07
9.05399e-07
9.06404e-07
9.07397e-07
9.08398e-07
9.09429e-07
9.10517e-07
9.1169e-07
9.12979e-07
9.14405e-07
9.15985e-07
9.17719e-07
9.19605e-07
9.21642e-07
9.23829e-07
9.26195e-07
9.28844e-07
9.31904e-07
9.35661e-07
9.41553e-07
9.52017e-07
9.69406e-07
9.8935e-07
1.00911e-06
1.03094e-06
1.07016e-06
1.17596e-06
1.38604e-06
1.82169e-06
2.45338e-06
6.31784e-07
8.22631e-07
8.23255e-07
8.24272e-07
8.25541e-07
8.26923e-07
8.28374e-07
8.29873e-07
8.31414e-07
8.32986e-07
8.34581e-07
8.36194e-07
8.37822e-07
8.39464e-07
8.41119e-07
8.42783e-07
8.44457e-07
8.46138e-07
8.4782e-07
8.49497e-07
8.5117e-07
8.52834e-07
8.54489e-07
8.56133e-07
8.57761e-07
8.59374e-07
8.60969e-07
8.62545e-07
8.64102e-07
8.65639e-07
8.67157e-07
8.68657e-07
8.7014e-07
8.71608e-07
8.73065e-07
8.74515e-07
8.75956e-07
8.77391e-07
8.78821e-07
8.8025e-07
8.81678e-07
8.83108e-07
8.84546e-07
8.85999e-07
8.87466e-07
8.88943e-07
8.90425e-07
8.91907e-07
8.93376e-07
8.94822e-07
8.96231e-07
8.9759e-07
8.98892e-07
9.00135e-07
9.01317e-07
9.02441e-07
9.0351e-07
9.04535e-07
9.05532e-07
9.06518e-07
9.07515e-07
9.08546e-07
9.09636e-07
9.10815e-07
9.12111e-07
9.13545e-07
9.15135e-07
9.16884e-07
9.18791e-07
9.20851e-07
9.23064e-07
9.2545e-07
9.28111e-07
9.31212e-07
9.34983e-07
9.40554e-07
9.49974e-07
9.66286e-07
9.86951e-07
1.01005e-06
1.03892e-06
1.07932e-06
1.21172e-06
1.44383e-06
1.89247e-06
2.53291e-06
6.60313e-07
8.2484e-07
8.25462e-07
8.26428e-07
8.27643e-07
8.2897e-07
8.30362e-07
8.31803e-07
8.33284e-07
8.34792e-07
8.36323e-07
8.3787e-07
8.39428e-07
8.41001e-07
8.42586e-07
8.4418e-07
8.45782e-07
8.47389e-07
8.48996e-07
8.506e-07
8.52197e-07
8.53786e-07
8.55365e-07
8.56932e-07
8.58486e-07
8.60023e-07
8.61542e-07
8.63043e-07
8.64526e-07
8.65988e-07
8.67433e-07
8.68861e-07
8.70272e-07
8.7167e-07
8.7306e-07
8.74443e-07
8.7582e-07
8.77191e-07
8.7856e-07
8.79931e-07
8.81304e-07
8.82679e-07
8.84068e-07
8.85473e-07
8.86895e-07
8.8833e-07
8.89773e-07
8.91216e-07
8.9265e-07
8.94063e-07
8.9544e-07
8.96771e-07
8.98047e-07
8.99265e-07
9.00424e-07
9.01527e-07
9.02578e-07
9.03587e-07
9.0457e-07
9.05546e-07
9.06535e-07
9.0756e-07
9.08647e-07
9.09825e-07
9.11122e-07
9.12559e-07
9.14154e-07
9.15913e-07
9.17834e-07
9.19914e-07
9.2215e-07
9.24555e-07
9.2723e-07
9.30357e-07
9.34128e-07
9.39371e-07
9.47763e-07
9.62647e-07
9.83638e-07
1.01035e-06
1.0456e-06
1.08152e-06
1.2609e-06
1.52952e-06
1.99624e-06
2.61674e-06
6.91179e-07
8.2716e-07
8.27787e-07
8.28696e-07
8.29851e-07
8.31114e-07
8.32442e-07
8.33817e-07
8.35227e-07
8.36667e-07
8.38127e-07
8.396e-07
8.41086e-07
8.42583e-07
8.44091e-07
8.45607e-07
8.47132e-07
8.48661e-07
8.5019e-07
8.51714e-07
8.53231e-07
8.54739e-07
8.56238e-07
8.57726e-07
8.59198e-07
8.60656e-07
8.62096e-07
8.63518e-07
8.64922e-07
8.66309e-07
8.67678e-07
8.69031e-07
8.70369e-07
8.71696e-07
8.73015e-07
8.7433e-07
8.75641e-07
8.76948e-07
8.78256e-07
8.79567e-07
8.80883e-07
8.82206e-07
8.83544e-07
8.84902e-07
8.86278e-07
8.8767e-07
8.89075e-07
8.90482e-07
8.91883e-07
8.93264e-07
8.94612e-07
8.95916e-07
8.97167e-07
8.9836e-07
8.99497e-07
9.00581e-07
9.01614e-07
9.02607e-07
9.03577e-07
9.04542e-07
9.05524e-07
9.06544e-07
9.07627e-07
9.08804e-07
9.10101e-07
9.11541e-07
9.13142e-07
9.14911e-07
9.16849e-07
9.18952e-07
9.21213e-07
9.23644e-07
9.26342e-07
9.29501e-07
9.3329e-07
9.3831e-07
9.45979e-07
9.59333e-07
9.79936e-07
1.01023e-06
1.04963e-06
1.08606e-06
1.32828e-06
1.63391e-06
2.11574e-06
2.64545e-06
7.18378e-07
8.29636e-07
8.30202e-07
8.31048e-07
8.32137e-07
8.33332e-07
8.34589e-07
8.35891e-07
8.37228e-07
8.38591e-07
8.39973e-07
8.41368e-07
8.42773e-07
8.44188e-07
8.45615e-07
8.4705e-07
8.48491e-07
8.49935e-07
8.51379e-07
8.5282e-07
8.54253e-07
8.55677e-07
8.57092e-07
8.58495e-07
8.59884e-07
8.61258e-07
8.62616e-07
8.63958e-07
8.65282e-07
8.66589e-07
8.67879e-07
8.69156e-07
8.70419e-07
8.71672e-07
8.7292e-07
8.74165e-07
8.75409e-07
8.76651e-07
8.77897e-07
8.79149e-07
8.80409e-07
8.81678e-07
8.82966e-07
8.84278e-07
8.85611e-07
8.86962e-07
8.88329e-07
8.89702e-07
8.91071e-07
8.92424e-07
8.93745e-07
8.95024e-07
8.96253e-07
8.97427e-07
8.98546e-07
8.99611e-07
9.00628e-07
9.01609e-07
9.02567e-07
9.03522e-07
9.04497e-07
9.05512e-07
9.06592e-07
9.07767e-07
9.09066e-07
9.10511e-07
9.12121e-07
9.13906e-07
9.15866e-07
9.17999e-07
9.20298e-07
9.22771e-07
9.25509e-07
9.28718e-07
9.32552e-07
9.37487e-07
9.44753e-07
9.56674e-07
9.77111e-07
1.01176e-06
1.05245e-06
1.09522e-06
1.37598e-06
1.71265e-06
2.20176e-06
2.65352e-06
7.41353e-07
8.32167e-07
8.32701e-07
8.3348e-07
8.34496e-07
8.35615e-07
8.36793e-07
8.38016e-07
8.39273e-07
8.40554e-07
8.41851e-07
8.43161e-07
8.44479e-07
8.45809e-07
8.47147e-07
8.48492e-07
8.49845e-07
8.51201e-07
8.52556e-07
8.53907e-07
8.55251e-07
8.56586e-07
8.57913e-07
8.59228e-07
8.60531e-07
8.61819e-07
8.63092e-07
8.6435e-07
8.65591e-07
8.66816e-07
8.68026e-07
8.69224e-07
8.70411e-07
8.7159e-07
8.72765e-07
8.73939e-07
8.75114e-07
8.76292e-07
8.77475e-07
8.78667e-07
8.7987e-07
8.81088e-07
8.82327e-07
8.83592e-07
8.84883e-07
8.86197e-07
8.87529e-07
8.88869e-07
8.90209e-07
8.91536e-07
8.92835e-07
8.94092e-07
8.95302e-07
8.96459e-07
8.97561e-07
8.9861e-07
8.99614e-07
9.00583e-07
9.01531e-07
9.02478e-07
9.03447e-07
9.04457e-07
9.05535e-07
9.06712e-07
9.08015e-07
9.09469e-07
9.11094e-07
9.129e-07
9.14893e-07
9.17069e-07
9.19421e-07
9.21955e-07
9.2476e-07
9.28051e-07
9.31966e-07
9.3692e-07
9.43988e-07
9.54647e-07
9.76314e-07
1.01661e-06
1.05654e-06
1.10964e-06
1.40037e-06
1.76541e-06
2.26095e-06
2.67318e-06
7.61066e-07
8.34791e-07
8.35279e-07
8.35984e-07
8.36919e-07
8.37954e-07
8.39048e-07
8.40184e-07
8.41351e-07
8.42541e-07
8.43748e-07
8.44965e-07
8.46191e-07
8.47426e-07
8.48672e-07
8.49922e-07
8.5118e-07
8.52442e-07
8.53703e-07
8.54959e-07
8.5621e-07
8.57453e-07
8.58687e-07
8.59911e-07
8.61124e-07
8.62323e-07
8.63508e-07
8.64679e-07
8.65834e-07
8.66976e-07
8.68104e-07
8.69222e-07
8.70331e-07
8.71434e-07
8.72536e-07
8.73639e-07
8.74747e-07
8.75859e-07
8.7698e-07
8.78113e-07
8.79261e-07
8.80427e-07
8.81619e-07
8.8284e-07
8.8409e-07
8.85367e-07
8.86666e-07
8.87977e-07
8.8929e-07
8.90593e-07
8.91871e-07
8.9311e-07
8.94303e-07
8.95443e-07
8.96531e-07
8.97568e-07
8.98561e-07
8.9952e-07
9.0046e-07
9.01401e-07
9.02366e-07
9.03375e-07
9.04456e-07
9.05637e-07
9.0695e-07
9.08419e-07
9.10066e-07
9.11906e-07
9.13943e-07
9.16177e-07
9.18601e-07
9.21218e-07
9.24117e-07
9.27532e-07
9.31575e-07
9.36612e-07
9.43528e-07
9.53187e-07
9.77826e-07
1.02453e-06
1.06304e-06
1.1275e-06
1.41721e-06
1.80418e-06
2.29607e-06
2.68247e-06
7.78442e-07
8.37455e-07
8.37924e-07
8.38547e-07
8.39395e-07
8.40339e-07
8.41338e-07
8.42378e-07
8.43449e-07
8.44541e-07
8.45649e-07
8.46766e-07
8.47893e-07
8.4903e-07
8.50173e-07
8.51323e-07
8.52481e-07
8.53643e-07
8.54804e-07
8.55962e-07
8.57114e-07
8.58259e-07
8.59398e-07
8.60527e-07
8.61645e-07
8.62752e-07
8.63846e-07
8.64929e-07
8.65998e-07
8.67055e-07
8.681e-07
8.69137e-07
8.70168e-07
8.71196e-07
8.72225e-07
8.73258e-07
8.74298e-07
8.75347e-07
8.76406e-07
8.77482e-07
8.78576e-07
8.79692e-07
8.80836e-07
8.82014e-07
8.83225e-07
8.84468e-07
8.85735e-07
8.87018e-07
8.88308e-07
8.89589e-07
8.90847e-07
8.92069e-07
8.93247e-07
8.94374e-07
8.9545e-07
8.96477e-07
8.97462e-07
8.98414e-07
8.9935e-07
9.00289e-07
9.01254e-07
9.02268e-07
9.03356e-07
9.0455e-07
9.0588e-07
9.07373e-07
9.09054e-07
9.10937e-07
9.13031e-07
9.15336e-07
9.17847e-07
9.20569e-07
9.23582e-07
9.2716e-07
9.31385e-07
9.36523e-07
9.4322e-07
9.52244e-07
9.81287e-07
1.03365e-06
1.07029e-06
1.1464e-06
1.43469e-06
1.83332e-06
2.30301e-06
2.66936e-06
7.93393e-07
8.40227e-07
8.40636e-07
8.41166e-07
8.41915e-07
8.42758e-07
8.43654e-07
8.44591e-07
8.45557e-07
8.46543e-07
8.47544e-07
8.48555e-07
8.49572e-07
8.50599e-07
8.51637e-07
8.5268e-07
8.53732e-07
8.54788e-07
8.55845e-07
8.56898e-07
8.57947e-07
8.58992e-07
8.60029e-07
8.6106e-07
8.62083e-07
8.63095e-07
8.64096e-07
8.65089e-07
8.66069e-07
8.67039e-07
8.68002e-07
8.68958e-07
8.69911e-07
8.70864e-07
8.71821e-07
8.72785e-07
8.7376e-07
8.74746e-07
8.75747e-07
8.76767e-07
8.77809e-07
8.78876e-07
8.79976e-07
8.81113e-07
8.82287e-07
8.83495e-07
8.84732e-07
8.8599e-07
8.87256e-07
8.88518e-07
8.89759e-07
8.90966e-07
8.9213e-07
8.93246e-07
8.94312e-07
8.95332e-07
8.96312e-07
8.97261e-07
8.98196e-07
8.99138e-07
9.0011e-07
9.01135e-07
9.02238e-07
9.03452e-07
9.04807e-07
9.06333e-07
9.08055e-07
9.09991e-07
9.12151e-07
9.14537e-07
9.17147e-07
9.19986e-07
9.23129e-07
9.26897e-07
9.31342e-07
9.36554e-07
9.42913e-07
9.51951e-07
9.86164e-07
1.04216e-06
1.07633e-06
1.16745e-06
1.45595e-06
1.85675e-06
2.29178e-06
2.63755e-06
8.06811e-07
8.43089e-07
8.43408e-07
8.43832e-07
8.44474e-07
8.45207e-07
8.45991e-07
8.46814e-07
8.47665e-07
8.48535e-07
8.49421e-07
8.50316e-07
8.51218e-07
8.52131e-07
8.53053e-07
8.53983e-07
8.54923e-07
8.55867e-07
8.56813e-07
8.57758e-07
8.587e-07
8.59638e-07
8.60572e-07
8.61501e-07
8.62424e-07
8.63339e-07
8.64246e-07
8.65146e-07
8.66037e-07
8.66922e-07
8.67801e-07
8.68676e-07
8.69552e-07
8.7043e-07
8.71316e-07
8.72213e-07
8.73123e-07
8.74048e-07
8.74992e-07
8.75959e-07
8.7695e-07
8.77971e-07
8.79028e-07
8.80127e-07
8.81266e-07
8.82443e-07
8.83652e-07
8.84885e-07
8.86129e-07
8.87373e-07
8.88599e-07
8.89792e-07
8.90946e-07
8.92054e-07
8.93113e-07
8.94128e-07
8.95103e-07
8.96053e-07
8.96993e-07
8.97941e-07
8.98924e-07
8.99965e-07
9.0109e-07
9.02329e-07
9.03717e-07
9.05283e-07
9.07053e-07
9.09048e-07
9.11279e-07
9.13753e-07
9.16466e-07
9.19432e-07
9.22718e-07
9.26684e-07
9.3137e-07
9.36619e-07
9.42507e-07
9.52631e-07
9.91916e-07
1.04845e-06
1.08203e-06
1.18725e-06
1.47835e-06
1.8733e-06
2.26836e-06
2.61533e-06
8.18783e-07
8.46035e-07
8.46235e-07
8.46546e-07
8.47068e-07
8.47678e-07
8.48339e-07
8.49039e-07
8.49768e-07
8.50514e-07
8.51275e-07
8.52046e-07
8.52825e-07
8.53615e-07
8.54416e-07
8.55225e-07
8.56045e-07
8.56872e-07
8.57703e-07
8.58534e-07
8.59363e-07
8.60193e-07
8.6102e-07
8.61844e-07
8.62664e-07
8.6348e-07
8.64291e-07
8.65096e-07
8.65897e-07
8.66694e-07
8.67488e-07
8.68283e-07
8.69081e-07
8.69886e-07
8.70701e-07
8.71531e-07
8.72379e-07
8.73245e-07
8.74133e-07
8.75048e-07
8.75991e-07
8.76967e-07
8.77983e-07
8.79045e-07
8.80151e-07
8.81299e-07
8.82483e-07
8.83694e-07
8.84919e-07
8.86147e-07
8.87359e-07
8.88542e-07
8.89687e-07
8.90787e-07
8.91842e-07
8.92854e-07
8.9383e-07
8.94783e-07
8.95728e-07
8.96688e-07
8.97685e-07
8.98746e-07
8.99897e-07
9.01167e-07
9.02593e-07
9.04204e-07
9.06026e-07
9.08084e-07
9.10391e-07
9.12955e-07
9.15778e-07
9.18879e-07
9.2232e-07
9.26482e-07
9.31426e-07
9.36721e-07
9.42033e-07
9.54603e-07
9.98132e-07
1.0522e-06
1.08682e-06
1.1973e-06
1.49678e-06
1.88056e-06
2.24082e-06
2.59406e-06
8.29691e-07
8.48985e-07
8.49088e-07
8.49273e-07
8.49668e-07
8.50149e-07
8.5068e-07
8.51248e-07
8.51842e-07
8.52456e-07
8.53087e-07
8.53726e-07
8.54373e-07
8.55035e-07
8.55708e-07
8.56392e-07
8.57087e-07
8.57792e-07
8.58502e-07
8.59215e-07
8.5993e-07
8.60645e-07
8.61363e-07
8.62079e-07
8.62796e-07
8.6351e-07
8.64222e-07
8.64932e-07
8.65641e-07
8.66349e-07
8.67059e-07
8.67772e-07
8.68492e-07
8.69223e-07
8.69969e-07
8.70733e-07
8.71518e-07
8.72325e-07
8.73158e-07
8.74022e-07
8.7492e-07
8.75853e-07
8.76831e-07
8.77858e-07
8.78934e-07
8.80054e-07
8.81215e-07
8.82407e-07
8.83617e-07
8.8483e-07
8.86031e-07
8.87207e-07
8.88345e-07
8.89442e-07
8.90495e-07
8.91508e-07
8.92487e-07
8.93446e-07
8.94402e-07
8.95375e-07
8.96391e-07
8.97475e-07
8.98655e-07
8.99961e-07
9.01428e-07
9.03087e-07
9.04967e-07
9.07092e-07
9.0948e-07
9.12142e-07
9.15083e-07
9.18332e-07
9.21945e-07
9.26312e-07
9.31537e-07
9.36919e-07
9.41591e-07
9.5819e-07
1.00474e-06
1.05412e-06
1.08945e-06
1.20103e-06
1.512e-06
1.88059e-06
2.20937e-06
2.55125e-06
8.39383e-07
8.51972e-07
8.51935e-07
8.51992e-07
8.52252e-07
8.52597e-07
8.5299e-07
8.53418e-07
8.53873e-07
8.54348e-07
8.54839e-07
8.5534e-07
8.55852e-07
8.56377e-07
8.56918e-07
8.5747e-07
8.58036e-07
8.58614e-07
8.592e-07
8.59792e-07
8.60388e-07
8.60987e-07
8.61591e-07
8.62199e-07
8.62808e-07
8.63419e-07
8.64031e-07
8.64645e-07
8.65262e-07
8.65881e-07
8.66505e-07
8.67137e-07
8.67779e-07
8.68436e-07
8.69111e-07
8.6981e-07
8.70534e-07
8.71283e-07
8.72062e-07
8.72877e-07
8.7373e-07
8.74623e-07
8.75564e-07
8.76559e-07
8.77606e-07
8.78703e-07
8.79844e-07
8.81019e-07
8.82217e-07
8.8342e-07
8.84614e-07
8.85785e-07
8.86921e-07
8.88018e-07
8.89074e-07
8.90091e-07
8.91078e-07
8.92048e-07
8.93018e-07
8.9401e-07
8.95049e-07
8.96161e-07
8.97375e-07
8.9872e-07
9.00233e-07
9.01945e-07
9.03888e-07
9.06089e-07
9.08568e-07
9.11339e-07
9.14414e-07
9.17828e-07
9.2164e-07
9.26232e-07
9.31781e-07
9.37277e-07
9.41276e-07
9.63686e-07
1.01235e-06
1.0555e-06
1.09265e-06
1.20891e-06
1.52572e-06
1.878e-06
2.17266e-06
2.48382e-06
8.48269e-07
8.54992e-07
8.5482e-07
8.54737e-07
8.54853e-07
8.5505e-07
8.55293e-07
8.5557e-07
8.55875e-07
8.562e-07
8.56542e-07
8.56897e-07
8.57262e-07
8.57644e-07
8.58043e-07
8.58457e-07
8.58889e-07
8.59335e-07
8.59791e-07
8.60256e-07
8.60729e-07
8.61209e-07
8.61697e-07
8.62192e-07
8.62693e-07
8.63199e-07
8.63709e-07
8.64226e-07
8.64749e-07
8.65279e-07
8.65818e-07
8.66369e-07
8.66934e-07
8.67518e-07
8.68124e-07
8.68758e-07
8.69421e-07
8.70114e-07
8.70842e-07
8.7161e-07
8.72419e-07
8.73274e-07
8.74181e-07
8.75146e-07
8.76169e-07
8.77245e-07
8.78369e-07
8.79531e-07
8.80719e-07
8.81917e-07
8.83109e-07
8.8428e-07
8.85419e-07
8.86521e-07
8.87583e-07
8.88611e-07
8.8961e-07
8.90597e-07
8.91588e-07
8.92605e-07
8.93673e-07
8.9482e-07
8.96073e-07
8.97464e-07
8.99029e-07
9.00804e-07
9.0282e-07
9.05109e-07
9.07692e-07
9.10591e-07
9.1382e-07
9.17421e-07
9.2146e-07
9.26318e-07
9.32179e-07
9.37807e-07
9.41236e-07
9.71061e-07
1.02151e-06
1.05798e-06
1.09692e-06
1.22207e-06
1.53628e-06
1.87124e-06
2.1323e-06
2.40474e-06
8.56893e-07
8.5826e-07
8.5791e-07
8.57656e-07
8.57595e-07
8.57615e-07
8.57682e-07
8.57785e-07
8.57917e-07
8.58072e-07
8.58247e-07
8.58437e-07
8.5864e-07
8.58864e-07
8.59109e-07
8.59374e-07
8.59657e-07
8.59961e-07
8.60279e-07
8.60611e-07
8.60955e-07
8.61309e-07
8.61676e-07
8.62055e-07
8.62444e-07
8.62842e-07
8.6325e-07
8.63668e-07
8.64098e-07
8.64537e-07
8.64991e-07
8.65461e-07
8.6595e-07
8.66462e-07
8.67e-07
8.67571e-07
8.68177e-07
8.68817e-07
8.69496e-07
8.7022e-07
8.7099e-07
8.71808e-07
8.72685e-07
8.73624e-07
8.74625e-07
8.75684e-07
8.76795e-07
8.77949e-07
8.79133e-07
8.8033e-07
8.81525e-07
8.827e-07
8.83849e-07
8.84961e-07
8.86037e-07
8.8708e-07
8.88099e-07
8.8911e-07
8.90129e-07
8.91179e-07
8.92284e-07
8.93473e-07
8.94774e-07
8.96221e-07
8.9785e-07
8.99698e-07
9.01802e-07
9.04194e-07
9.06901e-07
9.09945e-07
9.13348e-07
9.1716e-07
9.21453e-07
9.26624e-07
9.32743e-07
9.38432e-07
9.41789e-07
9.79703e-07
1.03166e-06
1.0621e-06
1.10327e-06
1.2373e-06
1.54188e-06
1.85581e-06
2.08216e-06
2.31961e-06
8.65811e-07
8.61925e-07
8.6135e-07
8.60872e-07
8.60585e-07
8.60384e-07
8.60235e-07
8.60124e-07
8.60049e-07
8.60001e-07
8.59979e-07
8.5998e-07
8.6e-07
8.60046e-07
8.60119e-07
8.60216e-07
8.60341e-07
8.6049e-07
8.6066e-07
8.60849e-07
8.61055e-07
8.61279e-07
8.61519e-07
8.61777e-07
8.62051e-07
8.62339e-07
8.62643e-07
8.62961e-07
8.63296e-07
8.63646e-07
8.64016e-07
8.64407e-07
8.64821e-07
8.65263e-07
8.65738e-07
8.66248e-07
8.66799e-07
8.6739e-07
8.68024e-07
8.68708e-07
8.69443e-07
8.70231e-07
8.71082e-07
8.72e-07
8.72985e-07
8.74032e-07
8.75136e-07
8.76287e-07
8.77472e-07
8.78675e-07
8.79878e-07
8.81067e-07
8.8223e-07
8.83361e-07
8.84457e-07
8.85524e-07
8.86571e-07
8.87614e-07
8.8867e-07
8.89762e-07
8.90916e-07
8.92158e-07
8.93519e-07
8.95034e-07
8.9674e-07
8.98678e-07
9.00885e-07
9.03396e-07
9.06242e-07
9.0945e-07
9.13045e-07
9.17087e-07
9.21655e-07
9.27174e-07
9.33481e-07
9.3908e-07
9.43371e-07
9.88449e-07
1.04094e-06
1.06703e-06
1.11071e-06
1.25137e-06
1.54195e-06
1.82869e-06
2.01737e-06
2.22856e-06
8.7445e-07
8.65817e-07
8.6493e-07
8.64183e-07
8.63631e-07
8.63173e-07
8.62773e-07
8.62422e-07
8.62116e-07
8.61847e-07
8.61611e-07
8.61405e-07
8.61228e-07
8.61084e-07
8.60975e-07
8.60898e-07
8.60856e-07
8.60844e-07
8.60861e-07
8.60904e-07
8.60971e-07
8.61062e-07
8.61176e-07
8.61314e-07
8.61474e-07
8.61654e-07
8.61855e-07
8.62078e-07
8.62322e-07
8.62588e-07
8.62878e-07
8.63193e-07
8.63538e-07
8.63916e-07
8.64333e-07
8.6479e-07
8.65292e-07
8.6584e-07
8.66437e-07
8.67087e-07
8.67793e-07
8.68559e-07
8.69392e-07
8.70296e-07
8.71272e-07
8.72316e-07
8.7342e-07
8.74576e-07
8.75771e-07
8.76988e-07
8.78209e-07
8.79419e-07
8.80607e-07
8.81766e-07
8.82893e-07
8.83994e-07
8.85079e-07
8.86163e-07
8.87268e-07
8.88414e-07
8.89627e-07
8.90936e-07
8.9237e-07
8.93967e-07
8.95765e-07
8.97806e-07
9.0013e-07
9.02776e-07
9.05774e-07
9.09158e-07
9.12957e-07
9.17238e-07
9.22097e-07
9.27974e-07
9.34365e-07
9.39727e-07
9.46262e-07
9.96185e-07
1.04729e-06
1.07109e-06
1.11883e-06
1.26194e-06
1.53519e-06
1.79105e-06
1.94641e-06
2.13266e-06
8.81439e-07
8.69089e-07
8.67891e-07
8.66886e-07
8.66084e-07
8.65384e-07
8.64753e-07
8.6418e-07
8.63659e-07
8.63183e-07
8.62751e-07
8.62357e-07
8.62e-07
8.61684e-07
8.6141e-07
8.61176e-07
8.60982e-07
8.60827e-07
8.60707e-07
8.60618e-07
8.60561e-07
8.60534e-07
8.60536e-07
8.60568e-07
8.60628e-07
8.60714e-07
8.60827e-07
8.60967e-07
8.61132e-07
8.61325e-07
8.61547e-07
8.61801e-07
8.62089e-07
8.62415e-07
8.62784e-07
8.632e-07
8.63665e-07
8.64181e-07
8.64752e-07
8.6538e-07
8.6607e-07
8.66825e-07
8.6765e-07
8.68553e-07
8.69532e-07
8.70583e-07
8.71699e-07
8.72872e-07
8.74088e-07
8.75331e-07
8.76582e-07
8.77825e-07
8.7905e-07
8.80248e-07
8.81418e-07
8.82565e-07
8.83698e-07
8.84837e-07
8.86001e-07
8.87213e-07
8.88498e-07
8.89886e-07
8.91406e-07
8.93096e-07
8.94998e-07
8.97153e-07
8.99604e-07
9.0239e-07
9.05548e-07
9.09111e-07
9.13118e-07
9.1764e-07
9.22798e-07
9.29017e-07
9.35402e-07
9.4036e-07
9.50377e-07
1.00256e-06
1.05009e-06
1.07331e-06
1.1274e-06
1.26795e-06
1.52138e-06
1.7452e-06
1.87324e-06
2.03507e-06
8.84974e-07
8.70599e-07
8.69172e-07
8.68e-07
8.67035e-07
8.6618e-07
8.65398e-07
8.6468e-07
8.6402e-07
8.63411e-07
8.6285e-07
8.62333e-07
8.61857e-07
8.61427e-07
8.61043e-07
8.60703e-07
8.60408e-07
8.60155e-07
8.59941e-07
8.59764e-07
8.59621e-07
8.59514e-07
8.5944e-07
8.59399e-07
8.59391e-07
8.59414e-07
8.59467e-07
8.59551e-07
8.59665e-07
8.59811e-07
8.5999e-07
8.60205e-07
8.60458e-07
8.60753e-07
8.61096e-07
8.61489e-07
8.61936e-07
8.62439e-07
8.63001e-07
8.63625e-07
8.64316e-07
8.65074e-07
8.65909e-07
8.66826e-07
8.67823e-07
8.68896e-07
8.7004e-07
8.71244e-07
8.72496e-07
8.73777e-07
8.75073e-07
8.76364e-07
8.77638e-07
8.78888e-07
8.80113e-07
8.81316e-07
8.82511e-07
8.83715e-07
8.84949e-07
8.86236e-07
8.87602e-07
8.89076e-07
8.90691e-07
8.92481e-07
8.94491e-07
8.96764e-07
8.99343e-07
9.02271e-07
9.05586e-07
9.09327e-07
9.13537e-07
9.18295e-07
9.23764e-07
9.30235e-07
9.36635e-07
9.41078e-07
9.5538e-07
1.00799e-06
1.05024e-06
1.07416e-06
1.13463e-06
1.2687e-06
1.50257e-06
1.69548e-06
1.80113e-06
1.93964e-06
8.84424e-07
8.69557e-07
8.68027e-07
8.6682e-07
8.65825e-07
8.6494e-07
8.6413e-07
8.63384e-07
8.62697e-07
8.62061e-07
8.61473e-07
8.6093e-07
8.60428e-07
8.59972e-07
8.5956e-07
8.59193e-07
8.58871e-07
8.5859e-07
8.5835e-07
8.58146e-07
8.57978e-07
8.57846e-07
8.5775e-07
8.57688e-07
8.5766e-07
8.57665e-07
8.57701e-07
8.5777e-07
8.57871e-07
8.58006e-07
8.58177e-07
8.58385e-07
8.58634e-07
8.58928e-07
8.59273e-07
8.59671e-07
8.60126e-07
8.6064e-07
8.61215e-07
8.61858e-07
8.6257e-07
8.63354e-07
8.64217e-07
8.65166e-07
8.66198e-07
8.67311e-07
8.68497e-07
8.69748e-07
8.71051e-07
8.72386e-07
8.73738e-07
8.75088e-07
8.76424e-07
8.77736e-07
8.79025e-07
8.80294e-07
8.81556e-07
8.8283e-07
8.84139e-07
8.85506e-07
8.86956e-07
8.88521e-07
8.9023e-07
8.92121e-07
8.94238e-07
8.96624e-07
8.99328e-07
9.02392e-07
9.05861e-07
9.09776e-07
9.14187e-07
9.19175e-07
9.24969e-07
9.31572e-07
9.38045e-07
9.42006e-07
9.60837e-07
1.01317e-06
1.04938e-06
1.07457e-06
1.14062e-06
1.26558e-06
1.48043e-06
1.64524e-06
1.73283e-06
1.84828e-06
8.80324e-07
8.65949e-07
8.64458e-07
8.63336e-07
8.62431e-07
8.61635e-07
8.60912e-07
8.6025e-07
8.59643e-07
8.59083e-07
8.58568e-07
8.58094e-07
8.57658e-07
8.57263e-07
8.56908e-07
8.56594e-07
8.56322e-07
8.56088e-07
8.5589e-07
8.55728e-07
8.55599e-07
8.55503e-07
8.55442e-07
8.55413e-07
8.55417e-07
8.55452e-07
8.55519e-07
8.55617e-07
8.55747e-07
8.55911e-07
8.56111e-07
8.56348e-07
8.56628e-07
8.56953e-07
8.57329e-07
8.57761e-07
8.58251e-07
8.58802e-07
8.59415e-07
8.60098e-07
8.60853e-07
8.61682e-07
8.62592e-07
8.6359e-07
8.64674e-07
8.6584e-07
8.67083e-07
8.68393e-07
8.69756e-07
8.71155e-07
8.72573e-07
8.73989e-07
8.75391e-07
8.76772e-07
8.78127e-07
8.79464e-07
8.80795e-07
8.82141e-07
8.83524e-07
8.84969e-07
8.86501e-07
8.88151e-07
8.89951e-07
8.91938e-07
8.94156e-07
8.96653e-07
8.99476e-07
9.02674e-07
9.06295e-07
9.10385e-07
9.15001e-07
9.20226e-07
9.26364e-07
9.33015e-07
9.396e-07
9.43161e-07
9.66471e-07
1.01861e-06
1.04869e-06
1.07534e-06
1.14541e-06
1.26065e-06
1.45757e-06
1.5974e-06
1.66996e-06
1.76472e-06
8.74156e-07
8.60568e-07
8.59197e-07
8.58231e-07
8.57488e-07
8.56853e-07
8.56288e-07
8.55779e-07
8.5532e-07
8.54904e-07
8.54527e-07
8.54185e-07
8.53875e-07
8.53601e-07
8.53363e-07
8.53159e-07
8.5299e-07
8.52856e-07
8.52753e-07
8.52681e-07
8.52639e-07
8.52625e-07
8.52642e-07
8.52689e-07
8.52764e-07
8.52868e-07
8.53002e-07
8.53164e-07
8.53357e-07
8.53582e-07
8.5384e-07
8.54136e-07
8.54472e-07
8.54854e-07
8.55286e-07
8.55774e-07
8.5632e-07
8.56926e-07
8.57597e-07
8.58337e-07
8.59151e-07
8.60038e-07
8.61007e-07
8.62065e-07
8.6321e-07
8.64439e-07
8.65745e-07
8.6712e-07
8.68548e-07
8.70015e-07
8.71499e-07
8.72983e-07
8.74453e-07
8.75899e-07
8.7732e-07
8.78722e-07
8.80119e-07
8.81532e-07
8.82985e-07
8.84502e-07
8.86111e-07
8.87842e-07
8.89729e-07
8.91808e-07
8.94127e-07
8.96732e-07
8.99677e-07
9.03013e-07
9.06795e-07
9.11073e-07
9.15911e-07
9.21396e-07
9.27899e-07
9.34557e-07
9.41302e-07
9.44556e-07
9.72192e-07
1.02436e-06
1.0488e-06
1.07705e-06
1.14969e-06
1.25625e-06
1.43506e-06
1.55288e-06
1.61242e-06
1.68936e-06
8.67575e-07
8.54555e-07
8.53351e-07
8.52553e-07
8.51987e-07
8.51527e-07
8.51135e-07
8.50795e-07
8.505e-07
8.50245e-07
8.50022e-07
8.49829e-07
8.49664e-07
8.49529e-07
8.49424e-07
8.49348e-07
8.49303e-07
8.49287e-07
8.49298e-07
8.49334e-07
8.49396e-07
8.49483e-07
8.49596e-07
8.49735e-07
8.499e-07
8.5009e-07
8.50306e-07
8.50548e-07
8.50817e-07
8.51117e-07
8.51448e-07
8.51814e-07
8.52219e-07
8.52669e-07
8.53168e-07
8.53721e-07
8.54332e-07
8.55003e-07
8.55737e-07
8.56542e-07
8.57419e-07
8.58369e-07
8.59402e-07
8.60522e-07
8.61729e-07
8.63021e-07
8.64391e-07
8.65829e-07
8.67322e-07
8.68852e-07
8.70401e-07
8.71949e-07
8.73482e-07
8.7499e-07
8.76472e-07
8.77935e-07
8.79393e-07
8.80869e-07
8.82389e-07
8.83977e-07
8.8566e-07
8.87473e-07
8.89448e-07
8.91624e-07
8.94048e-07
8.96772e-07
8.99851e-07
9.03342e-07
9.07304e-07
9.11794e-07
9.16881e-07
9.22666e-07
9.29492e-07
9.36195e-07
9.43165e-07
9.46171e-07
9.77998e-07
1.0303e-06
1.04987e-06
1.07991e-06
1.15351e-06
1.25269e-06
1.41283e-06
1.51107e-06
1.5588e-06
1.62125e-06
8.61866e-07
8.49019e-07
8.47963e-07
8.473e-07
8.46877e-07
8.4656e-07
8.4631e-07
8.46108e-07
8.45949e-07
8.45826e-07
8.45732e-07
8.45664e-07
8.45621e-07
8.45603e-07
8.45612e-07
8.45646e-07
8.45708e-07
8.45796e-07
8.45906e-07
8.46039e-07
8.46194e-07
8.46371e-07
8.4657e-07
8.46793e-07
8.47038e-07
8.47306e-07
8.47598e-07
8.47913e-07
8.48255e-07
8.48623e-07
8.49022e-07
8.49454e-07
8.49924e-07
8.50437e-07
8.50998e-07
8.51613e-07
8.52284e-07
8.53016e-07
8.53811e-07
8.54675e-07
8.5561e-07
8.5662e-07
8.5771e-07
8.58888e-07
8.60154e-07
8.61504e-07
8.62932e-07
8.64429e-07
8.65981e-07
8.67572e-07
8.6918e-07
8.70788e-07
8.72381e-07
8.73948e-07
8.75489e-07
8.77012e-07
8.78531e-07
8.80071e-07
8.81659e-07
8.83321e-07
8.85085e-07
8.86986e-07
8.89058e-07
8.91343e-07
8.93888e-07
8.96748e-07
8.99982e-07
9.03652e-07
9.07821e-07
9.12553e-07
9.17922e-07
9.24058e-07
9.31137e-07
9.38021e-07
9.45154e-07
9.48003e-07
9.83854e-07
1.03635e-06
1.05196e-06
1.08393e-06
1.15632e-06
1.24891e-06
1.39045e-06
1.47002e-06
1.50818e-06
1.55954e-06
8.57755e-07
8.446e-07
8.43667e-07
8.4308e-07
8.42741e-07
8.4251e-07
8.42344e-07
8.42227e-07
8.42151e-07
8.42108e-07
8.42093e-07
8.42102e-07
8.42134e-07
8.42191e-07
8.42271e-07
8.42376e-07
8.42507e-07
8.42661e-07
8.42837e-07
8.43034e-07
8.43251e-07
8.43488e-07
8.43747e-07
8.44026e-07
8.44328e-07
8.44651e-07
8.44996e-07
8.45364e-07
8.45758e-07
8.46177e-07
8.46626e-07
8.47108e-07
8.47627e-07
8.48188e-07
8.48798e-07
8.49461e-07
8.50182e-07
8.50962e-07
8.51806e-07
8.52719e-07
8.53704e-07
8.54763e-07
8.55903e-07
8.57131e-07
8.58448e-07
8.5985e-07
8.61331e-07
8.62882e-07
8.6449e-07
8.66137e-07
8.67804e-07
8.69471e-07
8.71123e-07
8.72751e-07
8.74354e-07
8.7594e-07
8.77525e-07
8.79135e-07
8.808e-07
8.82545e-07
8.84401e-07
8.86404e-07
8.88589e-07
8.90999e-07
8.93685e-07
8.96704e-07
9.00117e-07
9.03991e-07
9.08396e-07
9.13402e-07
9.19084e-07
9.25621e-07
9.32902e-07
9.40072e-07
9.47277e-07
9.50092e-07
9.89771e-07
1.04244e-06
1.05512e-06
1.0883e-06
1.15801e-06
1.24414e-06
1.36836e-06
1.4312e-06
1.46106e-06
1.50426e-06
8.55069e-07
8.41412e-07
8.40544e-07
8.39975e-07
8.39662e-07
8.39458e-07
8.3932e-07
8.39232e-07
8.39184e-07
8.39169e-07
8.39183e-07
8.3922e-07
8.3928e-07
8.39364e-07
8.39472e-07
8.39605e-07
8.39763e-07
8.39946e-07
8.40149e-07
8.40374e-07
8.40619e-07
8.40885e-07
8.41172e-07
8.41479e-07
8.41809e-07
8.42161e-07
8.42535e-07
8.42932e-07
8.43354e-07
8.43804e-07
8.44283e-07
8.44796e-07
8.45346e-07
8.4594e-07
8.46583e-07
8.4728e-07
8.48037e-07
8.48854e-07
8.49735e-07
8.50688e-07
8.51713e-07
8.52813e-07
8.53996e-07
8.55268e-07
8.56631e-07
8.58082e-07
8.59613e-07
8.61216e-07
8.62878e-07
8.64583e-07
8.66309e-07
8.68038e-07
8.69755e-07
8.71449e-07
8.7312e-07
8.74777e-07
8.76437e-07
8.78127e-07
8.79879e-07
8.8172e-07
8.83683e-07
8.85801e-07
8.88116e-07
8.9067e-07
8.93516e-07
8.96714e-07
9.00327e-07
9.0443e-07
9.09097e-07
9.14404e-07
9.20429e-07
9.27412e-07
9.34851e-07
9.42347e-07
9.49567e-07
9.52444e-07
9.95742e-07
1.04851e-06
1.05916e-06
1.09297e-06
1.15847e-06
1.23836e-06
1.3476e-06
1.39584e-06
1.41834e-06
1.45592e-06
8.53288e-07
8.39061e-07
8.38232e-07
8.37642e-07
8.37315e-07
8.371e-07
8.36952e-07
8.36854e-07
8.36797e-07
8.36775e-07
8.36782e-07
8.36815e-07
8.36871e-07
8.3695e-07
8.37056e-07
8.37187e-07
8.37345e-07
8.37528e-07
8.37734e-07
8.37962e-07
8.38211e-07
8.38482e-07
8.38774e-07
8.39089e-07
8.39427e-07
8.39789e-07
8.40175e-07
8.40584e-07
8.4102e-07
8.41485e-07
8.41981e-07
8.42511e-07
8.43082e-07
8.43697e-07
8.44363e-07
8.45086e-07
8.4587e-07
8.46716e-07
8.47628e-07
8.48614e-07
8.49675e-07
8.50812e-07
8.52035e-07
8.5335e-07
8.54758e-07
8.56256e-07
8.57837e-07
8.59495e-07
8.61214e-07
8.6298e-07
8.64771e-07
8.66568e-07
8.68355e-07
8.70123e-07
8.7187e-07
8.73606e-07
8.75351e-07
8.77131e-07
8.7898e-07
8.80929e-07
8.8301e-07
8.85258e-07
8.87716e-07
8.90428e-07
8.93451e-07
8.96845e-07
9.00679e-07
9.05031e-07
9.09981e-07
9.15614e-07
9.2201e-07
9.29459e-07
9.37036e-07
9.44875e-07
9.51986e-07
9.55102e-07
1.00173e-06
1.0545e-06
1.06381e-06
1.09758e-06
1.15815e-06
1.23214e-06
1.32917e-06
1.36484e-06
1.38078e-06
1.41467e-06
8.51686e-07
8.36998e-07
8.36211e-07
8.35584e-07
8.35228e-07
8.34988e-07
8.34817e-07
8.34696e-07
8.34618e-07
8.34577e-07
8.34565e-07
8.34581e-07
8.3462e-07
8.34685e-07
8.34776e-07
8.34896e-07
8.35043e-07
8.35217e-07
8.35416e-07
8.35637e-07
8.35881e-07
8.36149e-07
8.3644e-07
8.36755e-07
8.37095e-07
8.3746e-07
8.3785e-07
8.38266e-07
8.3871e-07
8.39186e-07
8.39694e-07
8.40238e-07
8.40826e-07
8.4146e-07
8.42147e-07
8.42893e-07
8.43701e-07
8.44575e-07
8.45519e-07
8.46537e-07
8.47633e-07
8.4881e-07
8.50073e-07
8.51432e-07
8.52887e-07
8.54435e-07
8.5607e-07
8.57785e-07
8.59566e-07
8.61397e-07
8.63258e-07
8.65128e-07
8.66992e-07
8.6884e-07
8.7067e-07
8.72493e-07
8.74329e-07
8.76207e-07
8.78162e-07
8.80227e-07
8.82436e-07
8.84825e-07
8.87437e-07
8.9032e-07
8.93532e-07
8.97138e-07
9.01209e-07
9.05827e-07
9.11082e-07
9.17065e-07
9.23863e-07
9.31733e-07
9.39506e-07
9.47663e-07
9.54542e-07
9.581e-07
1.00765e-06
1.06017e-06
1.06869e-06
1.10179e-06
1.1573e-06
1.22643e-06
1.31335e-06
1.33796e-06
1.34831e-06
1.3804e-06
8.49889e-07
8.34799e-07
8.34083e-07
8.33424e-07
8.33043e-07
8.32783e-07
8.32593e-07
8.32455e-07
8.3236e-07
8.32304e-07
8.32278e-07
8.3228e-07
8.32308e-07
8.32362e-07
8.32444e-07
8.32556e-07
8.32696e-07
8.32864e-07
8.33059e-07
8.33278e-07
8.33521e-07
8.33788e-07
8.3408e-07
8.34398e-07
8.34743e-07
8.35114e-07
8.35511e-07
8.35937e-07
8.36393e-07
8.36881e-07
8.37404e-07
8.37966e-07
8.38573e-07
8.39228e-07
8.39939e-07
8.40711e-07
8.41549e-07
8.42454e-07
8.43431e-07
8.44486e-07
8.45621e-07
8.46839e-07
8.48147e-07
8.49552e-07
8.51057e-07
8.52659e-07
8.54352e-07
8.56128e-07
8.57974e-07
8.59875e-07
8.61809e-07
8.63756e-07
8.65701e-07
8.67633e-07
8.69551e-07
8.71466e-07
8.73399e-07
8.75381e-07
8.77448e-07
8.79636e-07
8.8198e-07