/*--------------------------------*- C++ -*----------------------------------*\
  =========                 |
  \\      /  F ield         | OpenFOAM: The Open Source CFD Toolbox
   \\    /   O peration     | Website:  https://openfoam.org
    \\  /    A nd           | Version:  9
     \\/     M anipulation  |
\*---------------------------------------------------------------------------*/
FoamFile
{
    format      ascii;
    class       volScalarField;
    location    "2250";
    object      omega;
}
// * * * * * * * * * * * * * * * * * * * * * * * * * * * * * * * * * * * * * //

dimensions      [0 0 -1 0 0 0 0];

internalField   nonuniform List<scalar> 
13617
(
5.71211
12.6444
13.2158
13.8036
14.4099
15.0343
15.6771
16.3381
17.0171
17.7127
18.4253
19.1545
19.8993
20.6591
21.4332
22.2206
23.0211
23.833
24.6555
25.4874
26.3276
27.175
28.0284
28.8863
29.748
30.6113
31.4757
32.3399
33.2024
34.0622
34.9182
35.7689
36.6129
37.4498
38.2789
39.0989
39.9091
40.7086
41.4976
42.2748
43.0396
43.7931
44.5343
45.2624
45.9783
46.6815
47.3725
48.052
48.7198
49.3763
50.0212
50.6563
51.282
51.8975
52.5044
53.1049
53.6979
54.2839
54.8644
55.4398
56.0126
56.5831
57.1509
57.7183
58.2871
58.8591
59.4348
60.0148
60.6016
61.197
61.802
62.4196
63.0507
63.7
64.3715
65.0642
65.7881
66.6115
67.6802
69.143
71.0897
73.69
77.3453
81.7417
87.523
92.9426
5.7072
13.0271
13.6109
14.2067
14.8203
15.4516
16.1005
16.7663
17.4486
18.1475
18.8621
19.5918
20.336
21.0937
21.8641
22.6462
23.4393
24.2425
25.0544
25.8739
26.7
27.5314
28.3667
29.205
30.0446
30.8849
31.724
32.5611
33.3952
34.2246
35.0486
35.8662
36.676
37.4772
38.2692
39.0516
39.8234
40.5843
41.3334
42.0706
42.7957
43.5088
44.2092
44.8973
45.5742
46.2382
46.8906
47.5323
48.1634
48.7842
49.3951
49.9971
50.5901
51.1763
51.7558
52.329
52.8963
53.4594
54.0192
54.5761
55.1312
55.6859
56.2417
56.7997
57.3604
57.9251
58.4956
59.0739
59.661
60.2579
60.8672
61.4895
62.1277
62.7856
63.4661
64.1722
64.907
65.7122
66.7032
68.0312
69.8043
72.208
76.1191
80.5655
85.9607
91.5495
6.36924
13.484
14.0796
14.6826
15.3028
15.9398
16.5932
17.2626
17.9478
18.6473
19.3616
20.0894
20.8297
21.5823
22.3461
23.12
23.9028
24.6935
25.4914
26.295
27.1031
27.9148
28.7286
29.543
30.3575
31.1707
31.9809
32.7874
33.5893
34.385
35.1741
35.9551
36.7274
37.4901
38.2431
38.9855
39.7167
40.4363
41.1441
41.8399
42.5235
43.1946
43.8542
44.502
45.1383
45.7634
46.3773
46.9806
47.5749
48.1599
48.736
49.3049
49.8666
50.4226
50.9737
51.5201
52.0629
52.6027
53.1412
53.6792
54.2165
54.7558
55.298
55.8435
56.3943
56.9512
57.5154
58.0888
58.6725
59.2683
59.8771
60.5
61.1397
61.8
62.4835
63.1926
63.9294
64.7188
65.6508
66.8728
68.468
70.5434
74.7906
79.3175
84.4168
89.4289
7.22609
13.9819
14.5903
15.1998
15.8256
16.4671
17.1239
17.7955
18.4808
19.1801
19.8921
20.6158
21.3511
22.0964
22.8509
23.6135
24.3838
25.1603
25.9416
26.7265
27.5142
28.3033
29.0925
29.8811
30.6675
31.4509
32.2297
33.0033
33.7705
34.5308
35.2832
36.0261
36.7595
37.4829
38.1951
38.8964
39.5864
40.264
40.93
41.5839
42.2254
42.8556
43.4742
44.0816
44.6781
45.2633
45.8395
46.4067
46.9649
47.5148
48.0576
48.5946
49.1259
49.6518
50.1744
50.695
51.2128
51.7297
52.2474
52.7657
53.2859
53.8092
54.3361
54.8693
55.4094
55.9565
56.5126
57.0788
57.6572
58.2482
58.852
59.4716
60.1086
60.7652
61.4449
62.1507
62.8818
63.653
64.5393
65.6836
67.1021
68.9578
73.5795
78.059
82.7385
86.4095
8.17721
14.5219
15.137
15.752
16.3822
17.0271
17.6858
18.3577
19.0424
19.7387
20.4463
21.1644
21.8916
22.627
23.3703
24.1201
24.8747
25.6333
26.3952
27.1592
27.9237
28.6877
29.4503
30.21
30.966
31.7171
32.4624
33.2013
33.9325
34.6551
35.3686
36.0723
36.7655
37.4477
38.1188
38.7783
39.4261
40.0616
40.6854
41.2975
41.8976
42.4865
43.0645
43.6322
44.1897
44.7368
45.2756
45.806
46.3291
46.8455
47.3555
47.8605
48.3618
48.86
49.3562
49.8506
50.3444
50.8392
51.3358
51.8343
52.3369
52.8437
53.3556
53.875
54.4027
54.9384
55.4846
56.0415
56.6109
57.1947
57.7919
58.4046
59.0338
59.6833
60.3554
61.0515
61.7704
62.5207
63.3795
64.476
65.7112
67.4396
72.0959
76.3974
80.5961
83.12
9.18932
15.0968
15.7203
16.3395
16.9727
17.6188
18.2775
18.9479
19.6295
20.3212
21.0221
21.7316
22.4483
23.1717
23.9006
24.6335
25.3701
26.1088
26.8487
27.5883
28.3265
29.0625
29.7953
30.524
31.2472
31.9639
32.6734
33.3753
34.0681
34.7515
35.4247
36.0875
36.7394
37.3796
38.0084
38.6253
39.2301
39.8236
40.4055
40.9755
41.5341
42.0823
42.62
43.1478
43.6667
44.1767
44.6787
45.1735
45.6622
46.1454
46.6244
47.0992
47.5714
48.0424
48.512
48.9812
49.4519
49.9245
50.4001
50.8797
51.3644
51.8539
52.3506
52.8558
53.37
53.8935
54.4279
54.9736
55.5326
56.1058
56.693
57.2956
57.9151
58.5544
59.214
59.8956
60.5985
61.326
62.1795
63.2616
64.3289
66.0136
70.3969
74.4282
78.1129
79.8713
10.2668
15.7122
16.3422
16.9637
17.5978
18.2433
18.9
19.5666
20.2421
20.9259
21.6176
22.3155
23.0189
23.7266
24.4383
25.1518
25.8665
26.5817
27.296
28.0082
28.7175
29.4228
30.123
30.8175
31.5051
32.1849
32.8564
33.5188
34.1711
34.8132
35.4448
36.0656
36.6746
37.2719
37.8576
38.4313
38.9936
39.5443
40.0837
40.6117
41.1292
41.637
42.1353
42.6247
43.1054
43.5787
44.0456
44.506
44.9611
45.4123
45.8603
46.3059
46.7508
47.1943
47.6382
48.084
48.5322
48.9828
49.4376
49.8983
50.3651
50.8377
51.3191
51.8091
52.3092
52.8188
53.34
53.8734
54.4201
54.9812
55.5561
56.1468
56.7542
57.3791
58.0233
58.6887
59.3721
60.0733
60.9407
62.0353
62.9768
64.6816
68.6576
72.3122
75.4167
76.6115
11.4275
16.3663
17.0045
17.6263
18.2589
18.9016
19.553
20.2126
20.8792
21.5524
22.231
22.9138
23.6004
24.2898
24.9799
25.67
26.3601
27.0482
27.7333
28.4148
29.0917
29.7625
30.4273
31.0847
31.7338
32.3739
33.0047
33.6259
34.2362
34.8355
35.4238
36.0008
36.566
37.1195
37.6615
38.1918
38.7108
39.219
39.7159
40.2026
40.6798
41.1479
41.6067
42.0578
42.5017
42.9392
43.3713
43.7988
44.2221
44.6426
45.0609
45.4781
45.8959
46.3139
46.7332
47.156
47.5823
48.0122
48.4474
48.8891
49.338
49.7941
50.2592
50.7343
51.2199
51.7154
52.2236
52.7431
53.2762
53.8237
54.3849
54.9617
55.5535
56.1616
56.7888
57.4352
58.0958
58.7731
59.662
60.7714
61.6238
63.3714
66.9241
70.155
72.6333
73.4266
12.645
17.0694
17.7109
18.3298
18.9578
19.5937
20.2367
20.8858
21.5403
22.1988
22.8606
23.5248
24.19
24.8555
25.521
26.1844
26.8451
27.5024
28.1549
28.8018
29.4426
30.0763
30.702
31.3194
31.9275
32.5256
33.1135
33.6913
34.2572
34.8119
35.3559
35.8882
36.4085
36.9176
37.4155
37.9019
38.3779
38.8434
39.2986
39.7442
40.1812
40.6101
41.0312
41.4454
41.8535
42.2564
42.6551
43.0504
43.4429
43.8339
44.2241
44.6142
45.0057
45.3995
45.7958
46.1963
46.6015
47.0116
47.4279
47.8516
48.2836
48.7237
49.1731
49.6323
50.1027
50.5844
51.0778
51.5833
52.1021
52.6347
53.1815
53.742
54.3172
54.9084
55.5159
56.1402
56.7747
57.434
58.3423
59.438
60.2221
62.0615
65.1957
67.9862
69.8962
70.363
13.9518
17.8238
18.4632
19.0756
19.6953
20.3209
20.9512
21.5858
22.223
22.8622
23.5029
24.1436
24.7832
25.4216
26.0573
26.6891
27.3169
27.9389
28.5546
29.1638
29.7647
30.3573
30.9411
31.5152
32.0794
32.633
33.1759
33.708
34.2286
34.738
35.236
35.7226
36.1977
36.6617
37.1148
37.5576
37.9904
38.4135
38.8278
39.2331
39.6306
40.0214
40.4055
40.7841
41.158
41.5278
41.8947
42.2588
42.6217
42.9849
43.3483
43.7128
44.0801
44.4508
44.8252
45.2043
45.5891
45.9804
46.379
46.7854
47.2003
47.625
48.0587
48.5026
48.9586
49.4252
49.9035
50.3949
50.8986
51.4157
51.9465
52.4902
53.0476
53.6187
54.205
54.8065
55.4102
56.0587
56.9777
58.0162
58.764
60.6579
63.4034
65.8201
67.23
67.4674
15.3435
18.6346
19.2657
19.8676
20.474
21.0839
21.6962
22.3111
22.9269
23.5419
24.156
24.7681
25.3773
25.983
26.5843
27.1797
27.7693
28.3519
28.927
29.4936
30.0512
30.5999
31.1387
31.6668
32.1844
32.6913
33.1872
33.6719
34.1456
34.6079
35.0589
35.4992
35.9288
36.3478
36.7565
37.1558
37.5461
37.928
38.3017
38.6679
39.0271
39.3805
39.7289
40.0731
40.414
40.752
41.0885
41.4239
41.759
42.0954
42.4336
42.7741
43.1184
43.467
43.8208
44.1802
44.5459
44.9192
45.3003
45.6901
46.0891
46.4978
46.9164
47.3453
47.7862
48.2382
48.7019
49.1778
49.6657
50.1665
50.6794
51.2048
51.7426
52.2925
52.8558
53.4318
54.0015
54.6475
55.5617
56.5038
57.2232
58.9955
61.5251
63.6401
64.5628
64.6776
16.8476
19.4982
20.1192
20.704
21.292
21.8808
22.4702
23.0594
23.6463
24.2314
24.8138
25.3916
25.9646
26.5326
27.0944
27.6487
28.1957
28.7345
29.2642
29.7849
30.2958
30.7966
31.2872
31.7668
32.236
32.6943
33.1413
33.5774
34.0026
34.4169
34.821
35.2147
35.5983
35.9725
36.3378
36.6943
37.0429
37.3838
37.7178
38.0459
38.3685
38.6868
39.0013
39.3129
39.6222
39.9298
40.2373
40.5454
40.8546
41.1659
41.4803
41.7986
42.121
42.4488
42.7831
43.1239
43.4717
43.828
44.1926
44.5664
44.9498
45.3427
45.7462
46.1602
46.5855
47.0223
47.4708
47.9309
48.4022
48.8854
49.3796
49.885
50.401
50.9277
51.4655
52.015
52.5491
53.2012
54.0918
54.9112
55.5849
57.1576
59.5905
61.3814
61.9262
61.9361
18.4413
20.4214
21.0215
21.5838
22.1462
22.7075
23.2671
23.824
24.3771
24.9257
25.4697
26.0075
26.5388
27.0632
27.5803
28.0886
28.588
29.0785
29.5593
30.0303
30.4912
30.9414
31.381
31.81
32.2283
32.636
33.0328
33.4196
33.796
34.1623
34.5187
34.8659
35.2042
35.5342
35.8563
36.171
36.479
36.7804
37.0766
37.3679
37.6555
37.9401
38.2222
38.5026
38.782
39.0617
39.3422
39.6246
39.9095
40.1973
40.4894
40.7862
41.0886
41.3974
41.7133
42.0365
42.3674
42.7072
43.0557
43.414
43.7818
44.1598
44.5484
44.9473
45.3574
45.7782
46.21
46.6529
47.1062
47.5709
48.0456
48.5294
49.0229
49.5257
50.0364
50.5568
51.0541
51.7225
52.5731
53.2593
53.9036
55.3012
57.5908
59.1035
59.3353
59.2228
20.1405
21.3973
21.9709
22.5033
23.0337
23.5604
24.0826
24.6004
25.1123
25.6177
26.1169
26.6085
27.0918
27.567
28.0337
28.4907
28.9389
29.3771
29.8049
30.2228
30.6303
31.0274
31.4139
31.7903
32.1566
32.5127
32.8586
33.195
33.5225
33.8407
34.1501
34.4517
34.7456
35.0322
35.3121
35.5862
35.8546
36.1185
36.3786
36.6348
36.8888
37.1414
37.3928
37.644
37.896
38.1491
38.4042
38.6624
38.9241
39.1902
39.462
39.7394
40.0229
40.3136
40.6117
40.9182
41.2331
41.5572
41.8907
42.2335
42.5859
42.9491
43.3225
43.706
44.1
44.5045
44.9198
45.3455
45.7802
46.2252
46.6792
47.1413
47.6112
48.0881
48.5714
49.0621
49.5244
50.2189
51.0212
51.577
52.1907
53.4866
55.5834
56.8343
56.798
56.5963
21.9781
22.4437
22.9793
23.4723
23.9604
24.4428
24.9192
25.3893
25.8517
26.3063
26.7534
27.1916
27.6203
28.0401
28.4512
28.8521
29.243
29.6244
29.9958
30.3574
30.7088
31.05
31.3817
31.7041
32.017
32.3207
32.6153
32.9019
33.1803
33.4507
33.7138
33.9705
34.2207
34.4654
34.7048
34.9399
35.1711
35.3988
35.6242
35.848
36.0706
36.2927
36.5155
36.7396
36.9654
37.1937
37.4255
37.6614
37.9021
38.1481
38.4004
38.6591
38.9253
39.1993
39.481
39.7714
40.071
40.38
40.6983
41.0267
41.3646
41.7127
42.0706
42.4384
42.8168
43.2049
43.6028
44.0109
44.4271
44.852
45.2851
45.7256
46.1722
46.624
47.0806
47.5419
47.9756
48.6988
49.4481
49.8902
50.4862
51.7044
53.5474
54.561
54.3374
54.109
24.0511
23.5898
24.0743
24.5139
24.9465
25.3722
25.7909
26.2012
26.6031
26.9964
27.3813
27.7577
28.1242
28.4818
28.8301
29.1687
29.4983
29.8182
30.1292
30.431
30.7236
31.0074
31.2824
31.549
31.8076
32.0588
32.3021
32.5387
32.7686
32.992
33.2101
33.423
33.6311
33.8354
34.0362
34.2339
34.4295
34.6234
34.8163
35.009
35.2023
35.3965
35.5925
35.7912
35.993
36.1988
36.409
36.6243
36.8454
37.0729
37.3073
37.549
37.7989
38.0571
38.3235
38.5988
38.884
39.1787
39.4826
39.7968
40.1206
40.4541
40.7973
41.1503
41.5132
41.8854
42.2668
42.6572
43.0552
43.4614
43.8753
44.2949
44.7194
45.1485
45.5812
46.0132
46.4301
47.1725
47.8619
48.2172
48.8042
49.9434
51.5423
52.3203
51.9484
51.7358
26.3978
24.8679
25.2754
25.6429
26.0026
26.3553
26.7
27.037
27.366
27.687
27.9998
28.304
28.5996
28.8871
29.1665
29.4369
29.6994
29.954
30.2006
30.4395
30.671
30.8951
31.1121
31.3227
31.5269
31.725
31.9174
32.1047
32.2874
32.4655
32.6398
32.8107
32.9785
33.1443
33.3084
33.4712
33.6333
33.7956
33.9585
34.1223
34.288
34.4567
34.6285
34.8038
34.9839
35.169
35.3593
35.5559
35.7593
35.9699
36.1883
36.4145
36.6496
36.8936
37.1461
37.408
37.6796
37.9609
38.252
38.5528
38.8632
39.1833
39.513
39.8526
40.2013
40.5589
40.9256
41.3001
41.682
42.0719
42.4684
42.8696
43.2752
43.6839
44.0954
44.5003
44.9148
45.6541
46.2714
46.5711
47.1577
48.1836
49.5775
50.1309
49.6506
49.4557
28.9786
26.2453
26.5515
26.8269
27.0963
27.3598
27.6166
27.8675
28.1116
28.3486
28.5798
28.8041
29.0213
29.2328
29.438
29.6361
29.8284
30.0149
30.1954
30.3702
30.5398
30.7041
30.8632
31.018
31.1687
31.3152
31.4584
31.5986
31.7357
31.8702
32.0031
32.1346
32.265
32.3948
32.5246
32.6553
32.7869
32.9201
33.0555
33.1935
33.3349
33.4806
33.6304
33.7854
33.9461
34.1125
34.2854
34.4658
34.6537
34.8495
35.0538
35.2664
35.4887
35.7201
35.9608
36.2109
36.4707
36.7407
37.0206
37.3103
37.6095
37.9184
38.2369
38.5649
38.9019
39.2473
39.601
39.9629
40.3318
40.7079
41.0901
41.4758
41.8655
42.2571
42.6503
43.0295
43.4529
44.1655
44.6968
44.9631
45.5615
46.4698
47.6782
48.0266
47.4726
47.2792
31.4881
27.5937
27.7809
27.9532
28.1213
28.2867
28.4481
28.6054
28.7589
28.9083
29.0543
29.1963
29.3338
29.4676
29.5979
29.7244
29.8473
29.9667
30.0829
30.1958
30.3059
30.4131
30.5176
30.6201
30.7207
30.8196
30.9169
31.0135
31.1093
31.2043
31.2997
31.3958
31.4926
31.5904
31.6901
31.7921
31.8967
32.0046
32.1163
32.232
32.3524
32.4779
32.6092
32.7468
32.8912
33.0426
33.2012
33.3681
33.5432
33.7268
33.9198
34.122
34.3338
34.5553
34.7864
35.0273
35.2785
35.5399
35.8111
36.0926
36.3833
36.6836
36.9937
37.3128
37.6408
37.9771
38.3214
38.6732
39.0313
39.3958
39.7656
40.1385
40.5139
40.8895
41.2661
41.6213
42.0586
42.7253
43.1607
43.4117
44.0138
44.8002
45.8261
45.9886
45.3861
45.183
33.5346
28.71
28.7733
28.8441
28.9143
28.9846
29.054
29.123
29.1914
29.2587
29.3251
29.3906
29.4548
29.5185
29.581
29.6422
29.7029
29.7625
29.8214
29.8795
29.937
29.9942
30.0513
30.1085
30.166
30.2238
30.2821
30.3413
30.4018
30.464
30.528
30.594
30.6627
30.7343
30.8092
30.8879
30.9709
31.0586
31.151
31.2488
31.3526
31.4627
31.5798
31.7041
31.836
31.9759
32.1238
32.2809
32.4471
32.6222
32.8071
33.0019
33.2066
33.4213
33.6463
33.8813
34.1268
34.3823
34.6479
34.9237
35.2091
35.5038
35.8079
36.1208
36.442
36.7712
37.1079
37.4511
37.8001
38.1542
38.512
38.8721
39.2331
39.592
39.9501
40.2811
40.7297
41.3408
41.6785
41.9159
42.5026
43.1578
44.0088
44.0118
43.3889
43.1726
34.7425
29.3807
29.3382
29.3248
29.3136
29.306
29.3006
29.2972
29.2961
29.2966
29.2993
29.3038
29.3091
29.3161
29.3246
29.3344
29.3459
29.3583
29.3721
29.3877
29.4046
29.423
29.4432
29.4653
29.4894
29.5157
29.5445
29.5757
29.6098
29.647
29.6875
29.7315
29.7794
29.8317
29.8886
29.9507
30.0182
30.0914
30.1704
30.2561
30.3488
30.4487
30.5561
30.6719
30.7961
30.9288
31.0704
31.2215
31.3823
31.553
31.7336
31.9242
32.1256
32.337
32.5589
32.791
33.0332
33.2857
33.5482
33.8207
34.1027
34.3935
34.6928
35.0004
35.3158
35.6383
35.9673
36.3016
36.6405
36.9831
37.3276
37.6728
38.0167
38.3568
38.6937
38.9982
39.4504
40.0037
40.2469
40.4647
41.0152
41.5392
42.2251
42.0984
41.4746
41.2467
34.9818
29.4915
29.3697
29.2983
29.2321
29.1712
29.1148
29.0627
29.0147
28.9705
28.9299
28.8927
28.8587
28.8281
28.8009
28.7764
28.7547
28.7359
28.7201
28.7073
28.6975
28.6907
28.6869
28.6863
28.6889
28.6948
28.7047
28.7182
28.7353
28.757
28.783
28.8134
28.8491
28.89
28.9363
28.9887
29.0472
29.1124
29.1844
29.2637
29.3508
29.4457
29.5486
29.6606
29.7815
29.9114
30.051
30.2002
30.3595
30.5288
30.7082
30.8982
31.0987
31.3093
31.5304
31.7613
32.0023
32.2533
32.5138
32.7837
33.0621
33.349
33.6437
33.9452
34.2538
34.5683
34.8874
35.2106
35.537
35.8649
36.193
36.5199
36.8435
37.1612
37.4732
37.75
38.1978
38.6932
38.8495
39.0448
39.5419
39.9413
40.4731
40.2442
39.632
39.4017
34.3634
29.054
28.8867
28.7844
28.6896
28.6011
28.5181
28.4404
28.3681
28.3006
28.2375
28.1791
28.1248
28.0749
28.0289
27.9867
27.9485
27.9139
27.8832
27.8562
27.833
27.8136
27.798
27.7864
27.7787
27.7751
27.7761
27.7813
27.7911
27.8059
27.8257
27.8506
27.8813
27.9179
27.9606
28.0096
28.0655
28.1285
28.1989
28.2772
28.3634
28.4579
28.5609
28.6732
28.7946
28.9252
29.0656
29.2161
29.3765
29.5468
29.7274
29.9182
30.1195
30.3308
30.5518
30.7823
31.0223
31.2714
31.5296
31.7961
32.0701
32.3517
32.6399
32.9337
33.2328
33.5365
33.8432
34.1522
34.4627
34.7729
35.0816
35.3871
35.6872
35.98
36.2647
36.5131
36.9499
37.388
37.4697
37.6403
38.0708
38.3595
38.7513
38.4437
37.8557
37.6368
33.1542
28.1991
28.0118
27.8994
27.796
27.6997
27.609
27.5238
27.4444
27.3703
27.3009
27.2365
27.1767
27.1214
27.0705
27.0238
26.9814
26.9428
26.9084
26.8782
26.8519
26.8298
26.8117
26.7981
26.7888
26.7838
26.7835
26.7881
26.7975
26.8121
26.832
26.8574
26.8888
26.9265
26.9705
27.0211
27.0788
27.144
27.2168
27.2973
27.3861
27.4835
27.5895
27.7046
27.8289
27.9625
28.1058
28.2589
28.4217
28.5943
28.7767
28.9691
29.1712
29.3828
29.6034
29.8328
30.071
30.3173
30.5716
30.8331
31.1009
31.3751
31.6542
31.9378
32.2251
32.5152
32.8071
33.0998
33.392
33.6822
33.9696
34.2521
34.5276
34.7947
35.0509
35.2723
35.6936
36.076
36.0958
36.2428
36.6026
36.8016
37.075
36.7106
36.1555
35.9535
31.6804
27.0982
26.91
26.7999
26.7
26.607
26.5197
26.4381
26.3619
26.2909
26.2246
26.1633
26.1065
26.0541
26.0062
25.9626
25.9233
25.8878
25.8564
25.8292
25.8061
25.7871
25.7723
25.7617
25.7557
25.7542
25.7573
25.7653
25.7783
25.7966
25.8205
25.8498
25.8851
25.9268
25.975
26.0299
26.0919
26.1614
26.2384
26.3232
26.4164
26.518
26.6282
26.7473
26.8754
27.0127
27.1593
27.3152
27.4806
27.6553
27.8393
28.0325
28.2346
28.4454
28.6645
28.8917
29.1266
29.3685
29.6173
29.872
30.1317
30.3964
30.665
30.9368
31.2106
31.4859
31.7615
32.0361
32.309
32.579
32.8447
33.1042
33.3555
33.5972
33.8262
34.0237
34.427
34.7567
34.7281
34.8561
35.149
35.2751
35.4513
35.048
34.5295
34.352
30.1612
25.9133
25.7301
25.627
25.5351
25.4496
25.3698
25.2956
25.2265
25.1623
25.1028
25.0481
24.9976
24.9513
24.9094
24.8717
24.838
24.8081
24.7821
24.7603
24.7425
24.7288
24.7193
24.7139
24.7129
24.7164
24.7247
24.7377
24.7557
24.779
24.8077
24.8422
24.8827
24.9295
24.9826
25.0425
25.1095
25.1838
25.2655
25.355
25.4527
25.5586
25.6728
25.7958
25.9275
26.068
26.2173
26.3755
26.5426
26.7186
26.903
27.0959
27.2971
27.5061
27.7225
27.946
28.1763
28.4125
28.6543
28.901
29.1518
29.4062
29.6632
29.9223
30.1822
30.442
30.7009
30.9579
31.2123
31.4624
31.7071
31.9447
32.1732
32.3917
32.5954
32.7719
33.1559
33.4367
33.3724
33.4839
33.7158
33.7851
33.8868
33.4635
32.9858
32.8379
28.7415
24.7437
24.5682
24.4717
24.3877
24.3099
24.2374
24.1702
24.108
24.0504
23.9974
23.9491
23.9048
23.8645
23.8283
23.7961
23.7679
23.7433
23.7225
23.7059
23.6932
23.6845
23.6798
23.6793
23.6832
23.6915
23.7046
23.7224
23.7452
23.7732
23.8067
23.8459
23.8909
23.9423
24.0001
24.0646
24.136
24.2146
24.3005
24.394
24.4957
24.6052
24.7228
24.8488
24.9833
25.126
25.2771
25.4367
25.6045
25.7807
25.9648
26.1565
26.3557
26.5618
26.7747
26.9937
27.2185
27.4482
27.6826
27.9208
28.1621
28.4059
28.651
28.897
29.1431
29.3879
29.6311
29.8714
30.1078
30.339
30.5641
30.7814
30.989
31.1863
31.3668
31.5252
31.8892
32.1253
32.0356
32.1324
32.314
32.3421
32.387
31.954
31.5153
31.4007
27.4436
23.632
23.464
23.372
23.2937
23.2217
23.1549
23.093
23.036
22.9835
22.9353
22.8916
22.852
22.816
22.7839
22.7558
22.7317
22.7111
22.6945
22.6818
22.6729
22.668
22.6671
22.6704
22.6781
22.6903
22.7072
22.7288
22.7553
22.7873
22.8247
22.8677
22.9165
22.9716
23.0332
23.1014
23.1763
23.2583
23.3477
23.4446
23.5491
23.6615
23.7816
23.9098
24.046
24.1902
24.3422
24.5023
24.6702
24.8457
25.0286
25.2185
25.4149
25.6177
25.8262
26.0402
26.2591
26.482
26.7086
26.9382
27.1699
27.403
27.6367
27.8702
28.1028
28.3335
28.5614
28.7853
29.0048
29.2184
29.4252
29.6235
29.8117
29.9891
30.148
30.2906
30.6339
30.8302
30.7257
30.8108
30.9502
30.9444
30.9425
30.5116
30.1137
30.032
26.2532
22.5791
22.4188
22.3292
22.2549
22.1867
22.1237
22.0656
22.012
21.9629
21.9181
21.8773
21.8406
21.8078
21.7786
21.7535
21.7322
21.7144
21.7006
21.6907
21.6846
21.6825
21.6844
21.6905
21.7011
21.7163
21.736
21.7604
21.7901
21.8251
21.8655
21.9115
21.9635
22.0216
22.0861
22.1573
22.2352
22.32
22.412
22.5115
22.6184
22.7328
22.8548
22.9844
23.1218
23.2668
23.4194
23.5793
23.7466
23.9209
24.1018
24.2891
24.4824
24.6815
24.8853
25.0938
25.3066
25.5225
25.7412
25.9619
26.184
26.4065
26.6288
26.8501
27.0696
27.2864
27.4995
27.708
27.9113
28.1079
28.2973
28.4776
28.6473
28.8059
28.9448
29.0737
29.3948
29.5569
29.4464
29.5208
29.6251
29.5901
29.55
29.1271
28.7675
28.7247
25.1289
21.5747
21.4185
21.3297
21.2581
21.193
21.1327
21.0772
21.0264
20.9797
20.9373
20.899
20.8646
20.8341
20.8072
20.7841
20.7649
20.7493
20.7376
20.7298
20.726
20.7262
20.7305
20.7389
20.7518
20.7694
20.7916
20.8185
20.8507
20.8883
20.9313
20.98
21.0346
21.0953
21.1625
21.2362
21.3166
21.4038
21.4981
21.5996
21.7082
21.8244
21.9477
22.0785
22.2165
22.3619
22.5143
22.6737
22.8399
23.0124
23.1911
23.3755
23.5654
23.7601
23.9591
24.1618
24.3679
24.5765
24.7871
24.9988
25.211
25.4228
25.6338
25.8429
26.0494
26.2523
26.4509
26.6444
26.8319
27.0121
27.1846
27.3476
27.4997
27.6407
27.7612
27.878
28.1744
28.3084
28.1994
28.264
28.3375
28.2748
28.2032
27.7959
27.4747
27.4713
24.0464
20.6022
20.4499
20.3614
20.292
20.2296
20.172
20.1189
20.0705
20.0262
19.9859
19.9498
19.9174
19.8889
19.8642
19.8432
19.8259
19.8123
19.8027
19.797
19.7953
19.7976
19.8041
19.8147
19.8298
19.8497
19.8742
19.9036
19.9383
19.9784
20.0238
20.0749
20.1321
20.1953
20.2649
20.341
20.4236
20.5129
20.6092
20.7125
20.8226
20.9401
21.0646
21.1961
21.3344
21.4797
21.6316
21.7899
21.9545
22.1249
22.3009
22.4821
22.6679
22.8578
23.0513
23.248
23.4471
23.648
23.8501
24.0526
24.2547
24.4558
24.6552
24.8519
25.0454
25.2346
25.4188
25.5973
25.7692
25.9336
26.0898
26.2362
26.3714
26.4956
26.599
26.7051
26.9747
27.0867
26.9853
27.0393
27.0846
26.998
26.9017
26.511
26.229
26.2684
22.9981
19.6494
19.5077
19.4193
19.3522
19.2923
19.2374
19.1871
19.141
19.0991
19.0611
19.0272
18.9971
18.9708
18.9483
18.9294
18.9142
18.9028
18.8954
18.8919
18.8923
18.8967
18.9055
18.9185
18.936
18.9582
18.9851
19.017
19.0542
19.0966
19.1446
19.1982
19.2577
19.3234
19.3953
19.4735
19.5582
19.6495
19.7475
19.8523
19.964
20.0824
20.2074
20.3392
20.4776
20.6224
20.7733
20.9302
21.0928
21.2605
21.4333
21.6106
21.7919
21.9767
22.1643
22.3543
22.5461
22.7389
22.932
23.1249
23.3167
23.5067
23.6943
23.8786
24.059
24.2346
24.4047
24.5685
24.7254
24.8743
25.0147
25.1452
25.2646
25.3729
25.4605
25.5571
25.7988
25.8941
25.8027
25.8454
25.8652
25.7577
25.6449
25.2772
25.0315
25.1134
21.9928
18.7259
18.5926
18.5039
18.4393
18.3823
18.3302
18.2826
18.2391
18.1998
18.1643
18.1328
18.1051
18.0811
18.0608
18.0442
18.0313
18.0223
18.0171
18.0158
18.0186
18.0254
18.0364
18.0519
18.0718
18.0964
18.1258
18.1602
18.1998
18.2447
18.2951
18.3512
18.4131
18.4809
18.555
18.6353
18.7219
18.815
18.9145
19.0205
19.1332
19.2522
19.3777
19.5094
19.6473
19.7911
19.9406
20.0956
20.2556
20.4203
20.5894
20.7624
20.9386
21.1176
21.2988
21.4818
21.6657
21.85
22.0339
22.2169
22.398
22.5767
22.7525
22.9243
23.0916
23.2537
23.4099
23.5594
23.7017
23.8358
23.9612
24.0765
24.181
24.2745
24.3476
24.4359
24.6498
24.7325
24.6517
24.6829
24.6796
24.5598
24.437
24.0873
23.877
24.0029
21.0221
17.8276
17.7079
17.6187
17.5564
17.5023
17.453
17.4082
17.3675
17.3307
17.2977
17.2687
17.2435
17.2218
17.2039
17.1897
17.1793
17.1726
17.1698
17.1708
17.176
17.1852
17.1986
17.2165
17.2388
17.2658
17.2978
17.3347
17.3766
17.4239
17.4767
17.535
17.5991
17.6691
17.7451
17.8273
17.9156
18.0101
18.1108
18.2179
18.3311
18.4505
18.5759
18.7071
18.8441
18.9864
19.134
19.2865
19.4436
19.6047
19.7695
19.9376
20.1084
20.2813
20.4556
20.631
20.8067
20.9821
21.1565
21.3294
21.4996
21.667
21.8308
21.9903
22.1448
22.2936
22.4362
22.5717
22.6999
22.8197
22.9308
23.032
23.1222
23.202
23.2622
23.3426
23.5308
23.6046
23.5326
23.5521
23.5294
23.4036
23.2753
22.9458
22.7712
22.9416
20.1005
16.9602
16.8564
16.7663
16.7062
16.6548
16.6084
16.5662
16.5282
16.4941
16.4637
16.4371
16.4143
16.3951
16.3796
16.3677
16.3597
16.3553
16.3549
16.3582
16.3657
16.3774
16.3932
16.4134
16.4382
16.4676
16.5018
16.541
16.5853
16.6349
16.6899
16.7504
16.8165
16.8884
16.9662
17.05
17.1396
17.2352
17.3369
17.4445
17.558
17.6773
17.8021
17.9324
18.068
18.2085
18.3538
18.5033
18.6569
18.8139
18.9741
19.1369
19.3016
19.4679
19.6351
19.8026
19.9697
20.136
20.3007
20.4632
20.6226
20.7786
20.9306
21.0778
21.2196
21.3555
21.4847
21.6068
21.7215
21.8278
21.9254
22.0132
22.0904
22.1574
22.206
22.2791
22.4447
22.5122
22.4458
22.4553
22.4174
22.2955
22.1643
21.8488
21.7092
21.9219
19.2219
16.1256
16.0391
15.9478
15.8895
15.8408
15.7971
15.7577
15.7223
15.6908
15.6629
15.6388
15.6184
15.6016
15.5884
15.5789
15.5731
15.5711
15.573
15.5787
15.5884
15.6024
15.6206
15.6432
15.6702
15.7018
15.7384
15.7799
15.8263
15.878
15.935
15.9975
16.0655
16.1391
16.2183
16.3033
16.394
16.4905
16.5927
16.7005
16.8138
16.9327
17.0566
17.1856
17.3194
17.4575
17.5999
17.7461
17.8957
18.0483
18.2033
18.3603
18.5188
18.678
18.8376
18.997
19.1554
19.3123
19.4671
19.6191
19.7677
19.9125
20.0527
20.1876
20.317
20.4403
20.5568
20.6662
20.7679
20.8613
20.9462
21.0216
21.0867
21.1421
21.1803
21.2466
21.3932
21.4551
21.3912
21.3936
21.3443
21.2299
21.0954
20.7954
20.6955
18.3833
15.3249
15.2563
15.1633
15.1067
15.0605
15.0195
14.9827
14.9499
14.9209
14.8954
14.8737
14.8557
14.8413
14.8304
14.8232
14.8197
14.82
14.8241
14.8321
14.8441
14.8603
14.8808
14.9056
14.9348
14.9687
15.0074
15.0509
15.0994
15.1531
15.212
15.2761
15.3457
15.4207
15.5012
15.5872
15.6787
15.7757
15.878
15.9857
16.0986
16.2164
16.3391
16.4663
16.5978
16.7333
16.8725
17.0149
17.1601
17.3076
17.4572
17.6081
17.7598
17.9118
18.0635
18.2144
18.3639
18.5114
18.6562
18.7978
18.9355
19.069
19.1977
19.3209
19.4382
19.5492
19.6536
19.7507
19.8401
19.9214
19.9944
20.0581
20.112
20.1569
20.1859
20.2462
20.3772
17.5877
14.554
14.5076
14.4126
14.3574
14.3135
14.275
14.2409
14.2106
14.184
14.161
14.1417
14.126
14.1138
14.1052
14.1003
14.0991
14.1016
14.1079
14.1181
14.1323
14.1507
14.1734
14.2003
14.2317
14.2677
14.3084
14.3538
14.4042
14.4597
14.5202
14.586
14.6569
14.733
14.8145
14.9012
14.9932
15.0903
15.1925
15.2997
15.4116
15.5282
15.6491
15.7742
15.903
16.0354
16.1709
16.3091
16.4495
16.5919
16.7355
16.8799
17.0247
17.1692
17.3129
17.4552
17.5955
17.7335
17.8682
17.9994
18.1264
18.2488
18.3662
18.4779
18.5836
18.683
18.7756
18.861
18.9388
19.0089
19.0707
19.1236
19.1674
19.2028
19.224
19.2792
19.3974
16.8335
13.8107
13.7926
13.6951
13.6408
13.5991
13.5633
13.5317
13.5038
13.4796
13.459
13.4421
13.4287
13.4187
13.4124
13.4097
13.4106
13.4153
13.4238
13.4362
13.4526
13.4731
13.4978
13.5268
13.5602
13.5981
13.6407
13.688
13.7401
13.7972
13.8592
13.9262
13.9982
14.0753
14.1575
14.2447
14.3367
14.4337
14.5354
14.6418
14.7524
14.8674
14.9862
15.1087
15.2345
15.3633
15.4948
15.6284
15.7638
15.9005
16.038
16.1757
16.3131
16.4499
16.5853
16.719
16.8501
16.9785
17.1032
17.2242
17.3406
17.4522
17.5586
17.6592
17.7538
17.8419
17.9234
17.9977
18.0648
18.1243
18.1757
18.2189
18.2537
18.2804
18.295
18.3459
18.4543
16.1186
13.0993
13.1105
13.0103
12.9567
12.917
12.8835
12.8544
12.8289
12.8072
12.789
12.7743
12.763
12.7553
12.7512
12.7507
12.7537
12.7605
12.7711
12.7856
12.8041
12.8267
12.8534
12.8843
12.9196
12.9594
13.0037
13.0527
13.1063
13.1648
13.2281
13.2962
13.3691
13.4468
13.5294
13.6167
13.7086
13.8051
13.906
14.0111
14.1202
14.2331
14.3494
14.469
14.5915
14.7164
14.8435
14.9723
15.1022
15.233
15.364
15.4948
15.6248
15.7537
15.8807
16.0056
16.1275
16.2463
16.3613
16.4721
16.5782
16.6793
16.775
16.8649
16.9488
17.0264
17.0974
17.1614
17.2184
17.2681
17.3101
17.3445
17.371
17.3901
17.3993
17.4469
17.5477
15.4404
12.416
12.4605
12.3574
12.3041
12.2664
12.2351
12.2083
12.1852
12.1658
12.1498
12.1373
12.1283
12.1228
12.1208
12.1224
12.1276
12.1365
12.1491
12.1656
12.1861
12.2106
12.2392
12.272
12.3092
12.3507
12.3966
12.447
12.502
12.5617
12.626
12.6949
12.7684
12.8466
12.9293
13.0165
13.1079
13.2036
13.3033
13.4069
13.5141
13.6246
13.7382
13.8545
13.9732
14.0939
14.2163
14.3398
14.4641
14.5887
14.7131
14.8368
14.9592
15.0801
15.1988
15.3148
15.4276
15.537
15.6423
15.7432
15.8392
15.9302
16.0157
16.0954
16.1692
16.2367
16.2978
16.3523
16.4
16.4407
16.4742
16.5005
16.5199
16.5323
16.5374
16.5822
16.6783
14.8022
11.7592
11.8419
11.7357
11.6823
11.6462
11.6171
11.5926
11.5718
11.5546
11.5408
11.5305
11.5237
11.5203
11.5204
11.5241
11.5313
11.5422
11.5569
11.5754
11.5977
11.6241
11.6545
11.689
11.7278
11.7708
11.8182
11.87
11.9262
11.9868
12.0519
12.1214
12.1954
12.2737
12.3562
12.4429
12.5336
12.6282
12.7264
12.8281
12.933
13.0409
13.1513
13.2641
13.3788
13.495
13.6124
13.7305
13.8489
13.9671
14.0846
14.2011
14.3159
14.4286
14.5389
14.6462
14.7501
14.8501
14.946
15.0372
15.1236
15.2048
15.2806
15.3507
15.4149
15.4731
15.525
15.5706
15.6097
15.6423
15.6681
15.6875
15.7004
15.707
15.7091
15.7521
15.8446
14.1942
11.1282
11.2535
11.1442
11.0904
11.0558
11.0287
11.0063
10.9878
10.9728
10.9612
10.9531
10.9483
10.947
10.9492
10.9548
10.964
10.9769
10.9935
11.0138
11.038
11.0661
11.0981
11.1343
11.1746
11.219
11.2676
11.3205
11.3777
11.4391
11.5048
11.5747
11.6488
11.7269
11.809
11.895
11.9846
12.0778
12.1743
12.2738
12.3761
12.481
12.588
12.6969
12.8073
12.9187
13.0309
13.1433
13.2556
13.3673
13.4779
13.587
13.6941
13.7989
13.9008
13.9994
14.0945
14.1855
14.2722
14.3542
14.4313
14.5032
14.5697
14.6307
14.686
14.7354
14.7789
14.8164
14.8477
14.8729
14.892
14.9051
14.9125
14.9141
14.9144
14.9563
13.6221
10.5222
10.6945
10.582
10.5274
10.4941
10.4689
10.4486
10.4322
10.4193
10.4098
10.4038
10.4011
10.4018
10.406
10.4136
10.4247
10.4394
10.4578
10.4799
10.5058
10.5355
10.5691
10.6068
10.6484
10.6941
10.7438
10.7976
10.8555
10.9176
10.9836
11.0536
11.1276
11.2053
11.2867
11.3716
11.4599
11.5514
11.6458
11.7429
11.8423
11.9439
12.0473
12.152
12.2578
12.3643
12.4711
12.5777
12.6837
12.7888
12.8923
12.994
13.0935
13.1903
13.2839
13.3741
13.4605
13.5428
13.6207
13.6938
13.7621
13.8252
13.8829
13.9354
13.9824
14.0238
14.0595
14.0896
14.1139
14.1325
14.1455
14.1533
14.1561
14.1536
14.1531
14.1947
13.0832
9.94009
10.1635
10.0482
9.99241
9.96014
9.93666
9.91835
9.904