/*--------------------------------*- C++ -*----------------------------------*\
  =========                 |
  \\      /  F ield         | OpenFOAM: The Open Source CFD Toolbox
   \\    /   O peration     | Website:  https://openfoam.org
    \\  /    A nd           | Version:  9
     \\/     M anipulation  |
\*---------------------------------------------------------------------------*/
FoamFile
{
    format      ascii;
    class       volScalarField;
    location    "2250";
    object      p;
}
// * * * * * * * * * * * * * * * * * * * * * * * * * * * * * * * * * * * * * //

dimensions      [0 2 -2 0 0 0 0];

internalField   nonuniform List<scalar> 
13617
(
0.00127046
0.0012625
0.00127435
0.00127795
0.00128604
0.00128729
0.00128774
0.00128192
0.00127234
0.00125632
0.00123484
0.00120647
0.0011715
0.00112914
0.00107941
0.0010218
0.000956245
0.000882321
0.000799925
0.000708614
0.000608198
0.000498154
0.000378095
0.000247385
0.000105344
-4.88469e-05
-0.000216151
-0.000397684
-0.000594711
-0.00080861
-0.00104099
-0.00129354
-0.00156813
-0.00186674
-0.00219149
-0.00254471
-0.00292871
-0.00334612
-0.00379937
-0.00429126
-0.00482464
-0.00540224
-0.00602687
-0.00670119
-0.00742796
-0.00820938
-0.0090479
-0.00994505
-0.0109025
-0.0119215
-0.0130022
-0.0141461
-0.0153524
-0.016622
-0.0179562
-0.0193552
-0.0208218
-0.0223591
-0.0239722
-0.0256683
-0.0274575
-0.0293512
-0.0313645
-0.0335154
-0.0358248
-0.0383156
-0.0410125
-0.0439409
-0.0471259
-0.0505937
-0.0543603
-0.0584453
-0.0628644
-0.0676056
-0.0725908
-0.0777767
-0.0835153
-0.0904407
-0.0982702
-0.105113
-0.109138
-0.10973
-0.106877
-0.105756
-0.117744
-0.13503
0.00127193
0.0012611
0.00127308
0.00127677
0.00128485
0.00128604
0.00128637
0.00128037
0.00127056
0.00125428
0.00123246
0.00120371
0.0011683
0.00112545
0.00107518
0.00101696
0.000950763
0.000876147
0.000793028
0.000700945
0.000599741
0.00048887
0.000367991
0.000236426
9.35872e-05
-6.14303e-05
-0.000229497
-0.000411751
-0.000609387
-0.000823866
-0.00105661
-0.00130935
-0.00158388
-0.00188221
-0.00220622
-0.00255823
-0.00294046
-0.00335526
-0.00380513
-0.00429241
-0.00481982
-0.0053897
-0.00600464
-0.00666687
-0.00737854
-0.00814146
-0.00895729
-0.00982707
-0.0107515
-0.0117307
-0.0127648
-0.0138528
-0.0149938
-0.0161869
-0.0174317
-0.0187273
-0.0200735
-0.0214724
-0.0229257
-0.024438
-0.026015
-0.0276649
-0.0293974
-0.0312246
-0.0331607
-0.0352202
-0.0374191
-0.0397736
-0.0422986
-0.0450074
-0.0479102
-0.0510111
-0.054315
-0.0578295
-0.0615275
-0.0653475
-0.0693698
-0.0738987
-0.0790368
-0.084408
-0.0903782
-0.0988383
-0.109261
-0.115467
-0.121468
-0.12854
0.00126995
0.00125946
0.00127172
0.00127557
0.00128369
0.00128484
0.00128505
0.00127888
0.00126884
0.00125226
0.00123007
0.00120089
0.00116501
0.00112161
0.00107076
0.0010119
0.000945004
0.00086965
0.000785758
0.000692873
0.000590821
0.00047913
0.000357369
0.000224992
8.12974e-05
-7.45011e-05
-0.000243295
-0.000426219
-0.000624426
-0.000839292
-0.00107233
-0.00132511
-0.00159943
-0.0018971
-0.00222018
-0.0025706
-0.00295065
-0.00336239
-0.00380818
-0.00429036
-0.00481096
-0.00537236
-0.00597659
-0.00662569
-0.00732116
-0.00806435
-0.0088562
-0.00969709
-0.0105871
-0.0115253
-0.012511
-0.0135417
-0.0146164
-0.0157324
-0.0168867
-0.0180781
-0.0193048
-0.0205655
-0.0218606
-0.0231908
-0.0245583
-0.0259682
-0.0274246
-0.0289334
-0.0305029
-0.0321401
-0.0338528
-0.0356483
-0.0375309
-0.0395067
-0.0415762
-0.0437331
-0.0459754
-0.0483074
-0.0507375
-0.05323
-0.0557217
-0.0582415
-0.0609865
-0.0643779
-0.0695341
-0.0787954
-0.0931507
-0.103581
-0.107984
-0.111275
0.00126669
0.00125794
0.00127047
0.00127447
0.00128263
0.00128373
0.00128382
0.00127746
0.00126716
0.00125028
0.00122771
0.00119812
0.00116174
0.00111781
0.00106635
0.00100685
0.000939263
0.000863171
0.000778487
0.000684793
0.000581907
0.000469332
0.000346731
0.000213455
6.89111e-05
-8.77322e-05
-0.000257306
-0.000440976
-0.000639821
-0.000855246
-0.00108864
-0.00134164
-0.00161592
-0.00191327
-0.00223557
-0.00258483
-0.00296299
-0.00337225
-0.00381457
-0.00429214
-0.00480682
-0.00536066
-0.00595548
-0.00659252
-0.0072734
-0.00799869
-0.0087686
-0.00958331
-0.0104418
-0.0113425
-0.0122835
-0.0132623
-0.0142755
-0.0153198
-0.0163913
-0.0174866
-0.0186022
-0.0197349
-0.0208828
-0.0220435
-0.0232162
-0.0244014
-0.0255986
-0.0268093
-0.0280354
-0.0292762
-0.0305317
-0.0318008
-0.0330784
-0.0343609
-0.0356387
-0.0368984
-0.0381279
-0.0393136
-0.0404656
-0.0415876
-0.0426525
-0.0436593
-0.0447109
-0.0458985
-0.0471945
-0.0491541
-0.0548937
-0.0611341
-0.0662874
-0.0743327
0.00126398
0.00125651
0.00126929
0.00127341
0.00128157
0.00128262
0.00128257
0.00127602
0.00126546
0.00124826
0.00122533
0.00119531
0.00115845
0.00111398
0.00106194
0.0010018
0.000933515
0.000856695
0.000771251
0.000676747
0.000573026
0.000459613
0.00033612
0.000201992
5.65823e-05
-0.000100897
-0.000271294
-0.00045569
-0.00065523
-0.000871231
-0.00110506
-0.0013583
-0.00163264
-0.0019297
-0.00225135
-0.00259956
-0.00297606
-0.0033829
-0.00382205
-0.00429517
-0.00480436
-0.00535099
-0.00593661
-0.00656247
-0.00722914
-0.00793722
-0.00868646
-0.00947575
-0.0103039
-0.0111687
-0.012067
-0.0129954
-0.0139497
-0.0149252
-0.0159175
-0.0169203
-0.0179292
-0.0189393
-0.0199456
-0.0209436
-0.0219298
-0.0228997
-0.0238502
-0.0247773
-0.0256771
-0.0265428
-0.0273677
-0.0281434
-0.0288559
-0.0294939
-0.0300387
-0.0304692
-0.030766
-0.0309034
-0.0308762
-0.0307024
-0.0303896
-0.0299342
-0.0293565
-0.0285596
-0.0271304
-0.0243102
-0.0234244
-0.0251713
-0.0287727
-0.0379499
0.00126171
0.00125504
0.00126804
0.00127228
0.00128045
0.00128143
0.00128124
0.0012745
0.00126369
0.00124618
0.00122288
0.00119244
0.0011551
0.0011101
0.00105747
0.000996691
0.00092774
0.000850194
0.000763978
0.000668677
0.000564142
0.000449868
0.000325547
0.00019054
4.42998e-05
-0.000114005
-0.000285192
-0.000470317
-0.00067049
-0.000886992
-0.00112123
-0.00137468
-0.00164889
-0.00194565
-0.00226656
-0.00261348
-0.0029882
-0.00339245
-0.0038281
-0.00429672
-0.00479987
-0.00533899
-0.00591513
-0.00652915
-0.00718134
-0.00787159
-0.00859914
-0.00936259
-0.0101598
-0.0109878
-0.0118428
-0.0127202
-0.0136151
-0.0145218
-0.0154335
-0.016344
-0.0172467
-0.0181346
-0.0190009
-0.0198387
-0.0206415
-0.0214017
-0.0221126
-0.022766
-0.0233532
-0.0238626
-0.0242814
-0.0245952
-0.0247839
-0.0248288
-0.0247046
-0.0243839
-0.0238418
-0.0230472
-0.0219764
-0.0206307
-0.0190137
-0.0171205
-0.0149957
-0.0127026
-0.0102513
-0.00648111
-0.00349397
-0.00249184
-0.00192316
-0.00658737
0.00125937
0.00125347
0.0012667
0.00127107
0.00127924
0.00128017
0.00127984
0.00127292
0.00126185
0.00124404
0.00122037
0.00118951
0.00115169
0.00110617
0.00105295
0.000991543
0.000921908
0.000843638
0.000756663
0.000660572
0.000555209
0.000440102
0.000314915
0.00017907
3.19799e-05
-0.000127116
-0.000299071
-0.000484881
-0.000685667
-0.000902653
-0.00113719
-0.00139075
-0.00166485
-0.00196109
-0.00228116
-0.00262663
-0.00299933
-0.00340082
-0.00383264
-0.00429636
-0.00479321
-0.00532436
-0.00589052
-0.00649216
-0.00712931
-0.00780106
-0.00850633
-0.0092432
-0.0100085
-0.0107991
-0.01161
-0.0124358
-0.0132708
-0.0141078
-0.0149394
-0.015758
-0.0165552
-0.0173224
-0.0180511
-0.0187324
-0.0193568
-0.0199146
-0.0203958
-0.0207884
-0.0210801
-0.021255
-0.021296
-0.0211844
-0.0208952
-0.0204045
-0.0196821
-0.0186965
-0.0174189
-0.0158139
-0.013847
-0.0115056
-0.00877841
-0.00566275
-0.00221971
0.0014118
0.00483838
0.00918507
0.013539
0.0169766
0.0217577
0.0221459
0.00125689
0.00125187
0.00126533
0.00126983
0.00127801
0.00127888
0.00127842
0.00127131
0.00125998
0.00124187
0.00121783
0.00118655
0.00114826
0.0011022
0.0010484
0.00098636
0.000916038
0.000837042
0.000749301
0.000652414
0.000546218
0.000430276
0.000304238
0.000167547
1.96266e-05
-0.000140284
-0.000312966
-0.000499465
-0.000700814
-0.000918264
-0.00115309
-0.00140669
-0.00168058
-0.00197628
-0.00229531
-0.00263937
-0.00300983
-0.00340836
-0.00383624
-0.00429484
-0.00478515
-0.00530802
-0.00586396
-0.00645292
-0.00707444
-0.00772754
-0.00841025
-0.00912009
-0.00985348
-0.0106064
-0.011373
-0.0121476
-0.0129228
-0.013691
-0.0144438
-0.0151721
-0.0158662
-0.0165163
-0.0171118
-0.0176423
-0.0180962
-0.0184611
-0.0187246
-0.0188721
-0.0188879
-0.018753
-0.0184473
-0.0179482
-0.0172279
-0.0162591
-0.0150093
-0.0134434
-0.0115296
-0.00923146
-0.00651184
-0.00334838
0.000278104
0.00438251
0.00893931
0.0138853
0.018732
0.0244122
0.0307036
0.0367172
0.0447814
0.0491637
0.0012544
0.00125027
0.00126397
0.00126858
0.00127678
0.00127758
0.00127699
0.00126969
0.0012581
0.00123968
0.00121527
0.00118356
0.00114478
0.00109819
0.00104381
0.000981121
0.000910117
0.000830392
0.000741887
0.000644182
0.000537182
0.000420379
0.000293497
0.000155959
7.2222e-06
-0.000153486
-0.000326912
-0.000514081
-0.000715974
-0.000933842
-0.00116889
-0.00142252
-0.00169615
-0.00199118
-0.0023092
-0.00265155
-0.00301979
-0.00341514
-0.00383897
-0.00429223
-0.00477581
-0.00529016
-0.00583551
-0.00641158
-0.00701734
-0.00765132
-0.00831127
-0.00899395
-0.00969523
-0.0104102
-0.011133
-0.0118564
-0.0125727
-0.0132733
-0.0139485
-0.0145886
-0.0151825
-0.0157191
-0.0161864
-0.0165721
-0.0168634
-0.0170454
-0.0171037
-0.0170211
-0.0167802
-0.0163595
-0.015736
-0.014885
-0.0137775
-0.0123829
-0.0106689
-0.00859789
-0.0061358
-0.0032478
0.00010569
0.00395372
0.00832269
0.0132389
0.0187078
0.0247686
0.0309621
0.0380259
0.0461361
0.0544324
0.0650555
0.0730018
0.00125197
0.00124866
0.00126259
0.00126732
0.00127552
0.00127626
0.00127553
0.00126803
0.00125618
0.00123744
0.00121267
0.00118053
0.00114127
0.00109413
0.00103915
0.000975826
0.000904129
0.000823667
0.000734391
0.000635898
0.00052804
0.000410422
0.000282677
0.000144303
-5.26529e-06
-0.000166734
-0.000340902
-0.000528684
-0.000731118
-0.000949362
-0.00118462
-0.00143818
-0.00171144
-0.00200581
-0.00232258
-0.00266322
-0.00302897
-0.00342106
-0.00384054
-0.00428824
-0.00476474
-0.00527033
-0.00580484
-0.00636749
-0.00695716
-0.00757168
-0.00820845
-0.00886351
-0.00953251
-0.0102095
-0.0108883
-0.0115607
-0.0122186
-0.0128524
-0.0134515
-0.014005
-0.0145012
-0.0149277
-0.0152714
-0.0155183
-0.0156542
-0.015663
-0.015528
-0.0152305
-0.0147514
-0.0140678
-0.0131543
-0.0119863
-0.010533
-0.00876226
-0.00664315
-0.00413687
-0.00120767
0.00217687
0.00605579
0.0104651
0.0154339
0.0209945
0.0271473
0.0339898
0.0411383
0.0491513
0.0584519
0.0683664
0.0807836
0.0916304
0.00124956
0.00124703
0.00126119
0.00126604
0.00127423
0.0012749
0.00127403
0.00126633
0.00125422
0.00123516
0.00121
0.00117744
0.00113768
0.00109001
0.00103442
0.000970452
0.000898058
0.000816871
0.000726803
0.000627509
0.00051884
0.000400359
0.000271787
0.000132568
-1.78071e-05
-0.000180053
-0.000354909
-0.000543311
-0.000746253
-0.000964811
-0.0012002
-0.00145366
-0.00172648
-0.00201999
-0.00233545
-0.0026742
-0.00303727
-0.00342587
-0.00384079
-0.00428257
-0.00475172
-0.00524813
-0.00577132
-0.00632034
-0.00689334
-0.00748799
-0.008101
-0.00872814
-0.00936439
-0.0100034
-0.0106379
-0.0112596
-0.0118595
-0.012427
-0.0129513
-0.0134202
-0.0138213
-0.0141413
-0.014366
-0.0144803
-0.0144687
-0.014314
-0.0139985
-0.0135019
-0.0128044
-0.0118819
-0.0107083
-0.00925852
-0.00750185
-0.00540617
-0.0029412
-6.97519e-05
0.0032422
0.00702883
0.0113231
0.0161615
0.0215738
0.0275944
0.0342094
0.0415353
0.0492671
0.0578083
0.0676877
0.0784573
0.0917478
0.104279
0.00124717
0.00124538
0.00125975
0.00126471
0.0012729
0.0012735
0.00127248
0.00126457
0.00125219
0.00123282
0.00120727
0.00117427
0.00113402
0.0010858
0.00102962
0.000964995
0.000891906
0.000809969
0.000719137
0.000619034
0.00050953
0.000390208
0.000260796
0.000120751
-3.04174e-05
-0.000193429
-0.000368949
-0.000557951
-0.000761338
-0.000980185
-0.00121563
-0.00146892
-0.0017412
-0.00203374
-0.00234776
-0.00268438
-0.00304467
-0.00342946
-0.00383948
-0.00427518
-0.00473651
-0.00522341
-0.0057349
-0.00626968
-0.00682561
-0.00739986
-0.00798878
-0.00858764
-0.00919068
-0.00979139
-0.0103817
-0.010953
-0.0114951
-0.0119975
-0.0124485
-0.0128351
-0.0131442
-0.0133618
-0.0134727
-0.0134614
-0.0133113
-0.013004
-0.0125219
-0.0118435
-0.010948
-0.0098122
-0.00840979
-0.00671512
-0.00469907
-0.00233107
0.000418291
0.0035832
0.0071947
0.0112847
0.0158801
0.0210151
0.0267156
0.0330157
0.0398954
0.047468
0.0554964
0.0642443
0.0742406
0.0852082
0.0985657
0.11161
0.00124478
0.00124369
0.00125828
0.00126334
0.00127152
0.00127205
0.00127087
0.00126276
0.00125011
0.00123041
0.00120448
0.00117104
0.00113029
0.00108151
0.00102473
0.000959451
0.000885655
0.00080298
0.000711368
0.000610451
0.000500126
0.000379963
0.000249708
0.000108842
-4.31232e-05
-0.000206856
-0.000383048
-0.000572597
-0.000776373
-0.000995485
-0.00123094
-0.0014839
-0.00175556
-0.00204704
-0.00235944
-0.00269378
-0.003051
-0.00343175
-0.00383664
-0.00426582
-0.00471916
-0.00519602
-0.00569538
-0.00621542
-0.00675379
-0.00730723
-0.00787155
-0.00844171
-0.00901144
-0.00957354
-0.0101199
-0.010641
-0.0111263
-0.011565
-0.0119443
-0.0122513
-0.0124718
-0.0125917
-0.012595
-0.0124657
-0.0121865
-0.0117392
-0.0111051
-0.0102631
-0.00919205
-0.00786904
-0.0062689
-0.00436681
-0.00213567
0.000452894
0.00342573
0.00681318
0.0106432
0.0149417
0.0197332
0.0250426
0.0308902
0.0373098
0.0442759
0.0518896
0.0599676
0.0686554
0.0784196
0.0890691
0.101879
0.114543
0.0012424
0.00124198
0.00125678
0.00126193
0.0012701
0.00127055
0.00126921
0.0012609
0.00124796
0.00122793
0.00120161
0.00116772
0.00112647
0.00107714
0.00101974
0.000953809
0.000879311
0.000795885
0.000703491
0.000601766
0.000490604
0.000369616
0.000238514
9.68427e-05
-5.5901e-05
-0.000220345
-0.000397192
-0.000587248
-0.000791402
-0.00101067
-0.00124605
-0.00149866
-0.00176954
-0.00205982
-0.00237039
-0.00270231
-0.00305619
-0.00343272
-0.00383211
-0.00425444
-0.00469929
-0.00516577
-0.0056525
-0.00615741
-0.00667781
-0.00720993
-0.00774925
-0.00829035
-0.00882652
-0.00935013
-0.00985267
-0.0103241
-0.0107537
-0.0111299
-0.0114398
-0.01167
-0.0118061
-0.0118334
-0.0117357
-0.0114966
-0.0110987
-0.0105239
-0.0097535
-0.00876633
-0.00754225
-0.0060592
-0.00429338
-0.00222151
0.000181253
0.00294036
0.00607845
0.00962191
0.0135947
0.0180162
0.0229051
0.0282801
0.0341539
0.0405526
0.0474511
0.0549249
0.0628301
0.0712294
0.0804933
0.0904532
0.102266
0.113877
0.00124002
0.00124023
0.00125523
0.00126048
0.00126864
0.001269
0.0012675
0.00125897
0.00124575
0.00122539
0.00119867
0.00116433
0.00112257
0.00107267
0.00101466
0.000948061
0.00087285
0.000788682
0.000695499
0.000592963
0.00048097
0.000359136
0.000227224
8.4723e-05
-6.87677e-05
-0.000233927
-0.000411351
-0.000601902
-0.00080639
-0.00102575
-0.001261
-0.00151312
-0.00178313
-0.00207199
-0.00238065
-0.00270984
-0.00306019
-0.00343216
-0.00382576
-0.00424085
-0.00467681
-0.00513246
-0.00560616
-0.0060955
-0.00659735
-0.00710771
-0.00762172
-0.00813338
-0.00863588
-0.00912116
-0.00958017
-0.0100026
-0.0103776
-0.0106932
-0.0109361
-0.0110929
-0.0111489
-0.0110892
-0.0108976
-0.0105576
-0.0100521
-0.00936305
-0.00847198
-0.0073592
-0.00600493
-0.00438867
-0.00248852
-0.000284015
0.0022478
0.00512839
0.00837701
0.0120139
0.0160577
0.0205245
0.0254244
0.0307692
0.0365634
0.0428264
0.0495252
0.0567138
0.0642768
0.0722072
0.0807976
0.0898539
0.100413
0.11063
0.00123765
0.00123845
0.00125365
0.00125899
0.00126711
0.00126739
0.00126572
0.00125697
0.00124346
0.00122276
0.00119563
0.00116084
0.00111857
0.00106811
0.00100947
0.000942208
0.000866281
0.000781352
0.000687382
0.000584028
0.000471213
0.000348543
0.000215793
7.25125e-05
-8.17435e-05
-0.000247562
-0.000425587
-0.000616554
-0.000821308
-0.00104072
-0.00127573
-0.00152724
-0.00179625
-0.0020836
-0.00239006
-0.00271638
-0.00306292
-0.00342995
-0.00381748
-0.00422499
-0.00465159
-0.005096
-0.00555619
-0.00602944
-0.0065123
-0.00700056
-0.00748886
-0.00797099
-0.00843969
-0.00888671
-0.00930267
-0.00967723
-0.00999903
-0.010256
-0.0104347
-0.0105216
-0.0105024
-0.0103617
-0.0100836
-0.00965227
-0.00905062
-0.00826103
-0.00726613
-0.00604727
-0.0045861
-0.00286391
-0.000860813
0.0014412
0.00406081
0.00701614
0.0103223
0.0139949
0.0180466
0.0224865
0.0273208
0.0325534
0.0381797
0.0442116
0.0506123
0.05741
0.0645122
0.0718715
0.0796997
0.0877882
0.0970357
0.105842
0.00123528
0.00123664
0.00125202
0.00125744
0.00126554
0.00126572
0.00126387
0.00125489
0.0012411
0.00122005
0.00119251
0.00115726
0.00111446
0.00106343
0.00100417
0.000936223
0.000859586
0.000773895
0.000679129
0.000574965
0.000461309
0.00033781
0.000204249
6.01809e-05
-9.48086e-05
-0.000261295
-0.000439834
-0.000631226
-0.00083616
-0.00105557
-0.00129021
-0.00154103
-0.00180887
-0.00209453
-0.00239864
-0.00272174
-0.00306423
-0.00342606
-0.00380709
-0.00420661
-0.00462352
-0.00505618
-0.00550236
-0.00595907
-0.00642262
-0.00688831
-0.00735061
-0.00780302
-0.0082381
-0.00864715
-0.00902081
-0.00934844
-0.00961868
-0.0098194
-0.00993714
-0.00995843
-0.00986893
-0.00965386
-0.00929762
-0.00878451
-0.00809843
-0.00722265
-0.00614085
-0.00483611
-0.0032909
-0.00148919
0.000585783
0.00295016
0.0056187
0.00860504
0.0119207
0.0155754
0.0195777
0.0239301
0.0286328
0.0336836
0.039073
0.0448012
0.0508312
0.0571699
0.0637427
0.0704751
0.0775186
0.0846667
0.092662
0.100203
0.00123291
0.00123478
0.00125035
0.00125583
0.0012639
0.00126397
0.00126195
0.00125275
0.00123864
0.00121724
0.00118929
0.00115357
0.00111025
0.00105864
0.000998745
0.000930125
0.000852749
0.000766304
0.000670739
0.000565756
0.000451272
0.000326947
0.000192566
4.772e-05
-0.000107967
-0.000275078
-0.000454135
-0.000645861
-0.000850967
-0.00107022
-0.00130444
-0.00155443
-0.00182097
-0.00210472
-0.00240626
-0.00272596
-0.00306403
-0.00342038
-0.00379452
-0.00418561
-0.00459238
-0.00501293
-0.00544462
-0.00588435
-0.00632812
-0.00677093
-0.00720705
-0.00762974
-0.00803129
-0.00840299
-0.00873521
-0.00901724
-0.00923786
-0.00938485
-0.0094451
-0.00940523
-0.00925111
-0.00896862
-0.00854271
-0.00795829
-0.00720011
-0.00625273
-0.00510106
-0.00372985
-0.00212384
-0.000268439
0.00184961
0.00424305
0.00692395
0.00990118
0.0131826
0.0167735
0.0206758
0.0248885
0.0294068
0.0342226
0.0393193
0.0446927
0.0503036
0.0561443
0.0621503
0.06824
0.0745137
0.0807806
0.0876187
0.0940505
0.00123054
0.00123288
0.00124862
0.00125417
0.00126219
0.00126216
0.00125995
0.00125051
0.0012361
0.00121434
0.00118597
0.00114977
0.00110591
0.00105372
0.000993187
0.000923883
0.000845777
0.00075856
0.000662201
0.000556397
0.000441086
0.000315933
0.000180762
3.51473e-05
-0.000121235
-0.000288933
-0.000468474
-0.000660478
-0.000865642
-0.0010847
-0.00131838
-0.00156742
-0.00183246
-0.00211411
-0.00241283
-0.0027289
-0.00306224
-0.00341273
-0.00377965
-0.00416197
-0.00455814
-0.00496602
-0.00538289
-0.00580523
-0.00622879
-0.00664856
-0.00705834
-0.00745142
-0.00781977
-0.0081547
-0.00844655
-0.00868464
-0.00885778
-0.00895401
-0.0089605
-0.00886424
-0.00865166
-0.00830912
-0.00782229
-0.00717719
-0.00635943
-0.005355
-0.00415043
-0.00273211
-0.00108683
0.000796598
0.00293009
0.00532261
0.00798221
0.0109152
0.0141241
0.0176104
0.0213723
0.0254033
0.0296946
0.0342344
0.0390025
0.0439872
0.0491504
0.054475
0.0599066
0.0653605
0.0708969
0.0763579
0.0821595
0.0876319
0.00122816
0.00123093
0.00124684
0.00125245
0.00126042
0.00126027
0.00125787
0.00124818
0.00123346
0.00121133
0.00118253
0.00114585
0.00110145
0.00104868
0.000987491
0.000917495
0.000838659
0.000750666
0.00065351
0.000546882
0.000430746
0.000304776
0.000168806
2.24606e-05
-0.000134602
-0.000302868
-0.0004828
-0.000675072
-0.00088022
-0.00109898
-0.00133199
-0.00157991
-0.00184331
-0.00212268
-0.00241832
-0.00273041
-0.0030588
-0.00340305
-0.00376236
-0.00413547
-0.00452057
-0.00491543
-0.00531702
-0.0057216
-0.00612478
-0.00652121
-0.0069047
-0.00726831
-0.00760404
-0.00790301
-0.00815579
-0.00835177
-0.0084799
-0.00852862
-0.00848551
-0.00833801
-0.00807325
-0.00767822
-0.00713952
-0.00644438
-0.00557974
-0.00453262
-0.00329157
-0.00184492
-0.000181511
0.00170742
0.00383029
0.00619385
0.00880284
0.0116596
0.0147638
0.0181127
0.0217
0.0255178
0.0295521
0.0337882
0.0382037
0.042782
0.0474881
0.0522975
0.0571628
0.0620059
0.0668579
0.0715906
0.0764884
0.0811321
0.00122578
0.00122893
0.001245
0.00125065
0.00125856
0.0012583
0.0012557
0.00124575
0.00123071
0.00120821
0.00117897
0.00114181
0.00109687
0.00104348
0.000981654
0.000910956
0.000831382
0.000742614
0.000644651
0.000537213
0.000420247
0.000293465
0.000156717
9.64035e-06
-0.000148059
-0.000316849
-0.000497162
-0.000689581
-0.000894669
-0.00111302
-0.00134523
-0.00159187
-0.00185345
-0.00213031
-0.00242265
-0.00273049
-0.00305356
-0.00339122
-0.0037425
-0.00410601
-0.0044797
-0.00486112
-0.00524702
-0.00563355
-0.00601608
-0.0063891
-0.00674638
-0.00708086
-0.00738455
-0.00764868
-0.00786387
-0.0080198
-0.00810572
-0.00811042
-0.00802212
-0.00782881
-0.00751829
-0.00707858
-0.0064973
-0.00576277
-0.00486345
-0.00378793
-0.00252616
-0.0010687
0.00059289
0.00246591
0.00455532
0.0068655
0.00939791
0.0121518
0.015124
0.0183089
0.0216972
0.0252773
0.0290347
0.0329515
0.0370037
0.0411724
0.0454254
0.0497343
0.0540589
0.0583299
0.0625574
0.0666418
0.0707667
0.0746925
0.00122338
0.00122689
0.0012431
0.00124878
0.00125663
0.00125624
0.00125343
0.00124323
0.00122785
0.00120498
0.00117529
0.00113763
0.00109214
0.00103815
0.000975664
0.000904265
0.000823939
0.000734403
0.000635628
0.000527367
0.00040959
0.000282003
0.000144491
-3.28356e-06
-0.000161601
-0.000330878
-0.000511516
-0.000704028
-0.000908946
-0.00112678
-0.00135807
-0.00160328
-0.00186282
-0.00213693
-0.00242572
-0.00272903
-0.00304641
-0.00337714
-0.00372006
-0.00407353
-0.00443541
-0.00480299
-0.00517289
-0.00554112
-0.00590282
-0.00625248
-0.0065838
-0.0068896
-0.00716212
-0.00739262
-0.00757188
-0.0076901
-0.00773682
-0.00770123
-0.00757233
-0.00733874
-0.0069892
-0.00651273
-0.00589803
-0.00513466
-0.00421254
-0.00312193
-0.00185477
-0.000403003
0.00123898
0.00307641
0.00511223
0.00734758
0.00978172
0.0124112
0.0152305
0.0182313
0.0214025
0.0247309
0.0281997
0.0317907
0.0354795
0.0392469
0.0430611
0.0468948
0.0507137
0.0544586
0.0581266
0.0616425
0.0651163
0.0684279
0.00122097
0.00122478
0.00124113
0.00124683
0.00125462
0.00125408
0.00125106
0.00124059
0.00122488
0.00120162
0.00117148
0.00113332
0.00108726
0.00103266
0.000969511
0.000897408
0.000816336
0.000726009
0.000626438
0.000517358
0.000398766
0.000270386
0.000132132
-1.63361e-05
-0.000175217
-0.00034494
-0.000525836
-0.000718381
-0.000923006
-0.00114023
-0.00137043
-0.00161407
-0.00187137
-0.0021425
-0.00242744
-0.00272589
-0.00303731
-0.00336076
-0.0036949
-0.00403799
-0.00438766
-0.00474106
-0.00509469
-0.00544439
-0.00578523
-0.00611167
-0.00641732
-0.00669514
-0.00693744
-0.00713573
-0.00728107
-0.007364
-0.00737465
-0.00730281
-0.0071381
-0.00686999
-0.00648818
-0.00598271
-0.00534359
-0.00456167
-0.00362815
-0.00253524
-0.0012766
0.000154061
0.00176051
0.0035453
0.00550987
0.00765281
0.00997104
0.0124593
0.0151102
0.0179135
0.020857
0.0239258
0.0271037
0.0303707
0.033705
0.0370855
0.0404843
0.043876
0.0472311
0.0505014
0.0536755
0.0566967
0.0596298
0.0624251
0.00121855
0.00122262
0.00123909
0.00124481
0.00125251
0.00125183
0.00124858
0.00123783
0.00122178
0.00119812
0.00116753
0.00112886
0.00108223
0.00102702
0.000963193
0.000890379
0.000808552
0.000717448
0.000617068
0.000507185
0.000387778
0.000258629
0.000119627
-2.9475e-05
-0.000188915
-0.000359022
-0.000540104
-0.000732591
-0.00093686
-0.00115331
-0.0013823
-0.00162414
-0.001879
-0.00214693
-0.00242774
-0.00272106
-0.00302614
-0.00334194
-0.00366697
-0.00399927
-0.00433641
-0.00467537
-0.0050125
-0.00534355
-0.0056636
-0.00596698
-0.00624748
-0.00649811
-0.00671134
-0.00687904
-0.00699259
-0.00704298
-0.00702092
-0.00691687
-0.00672123
-0.00642436
-0.00601706
-0.00549027
-0.00483545
-0.00404472
-0.00311074
-0.00202739
-0.000789743
0.000606327
0.002163
0.00388111
0.0057595
0.00779573
0.00998474
0.0123197
0.0147918
0.0173899
0.0201008
0.0229099
0.0258
0.0287526
0.0317465
0.0347617
0.0377737
0.0407607
0.0436972
0.0465443
0.0492862
0.0518821
0.054369
0.0567353
0.0012161
0.0012204
0.00123697
0.00124269
0.0012503
0.00124946
0.00124598
0.00123496
0.00121855
0.00119449
0.00116343
0.00112425
0.00107704
0.0010212
0.000956703
0.00088317
0.000800595
0.000708705
0.000607522
0.000496828
0.000376634
0.000246714
0.000107015
-4.27254e-05
-0.000202651
-0.000373096
-0.000554306
-0.000746655
-0.000950431
-0.00116599
-0.00139361
-0.00163346
-0.00188567
-0.00215012
-0.00242655
-0.0027144
-0.00301284
-0.00332065
-0.00363619
-0.00395739
-0.0042817
-0.00460594
-0.00492643
-0.00523881
-0.00553818
-0.00581893
-0.00607485
-0.00629923
-0.00648477
-0.00662361
-0.00670765
-0.00672838
-0.00667706
-0.00654494
-0.00632333
-0.00600352
-0.00557723
-0.00503666
-0.00437443
-0.00358403
-0.00265945
-0.0015964
-0.00039109
0.000958723
0.00245369
0.00409299
0.00587423
0.00779295
0.0098432
0.0120171
0.0143048
0.0166949
0.0191741
0.0217276
0.024339
0.026991
0.0296641
0.0323399
0.0349977
0.0376177
0.0401798
0.0426528
0.0450207
0.0472545
0.0493738
0.0513857
0.00121364
0.00121811
0.00123477
0.00124048
0.00124799
0.00124699
0.00124327
0.00123195
0.00121518
0.00119072
0.00115918
0.00111947
0.00107168
0.00101521
0.000950038
0.000875785
0.000792452
0.00069978
0.000597802
0.000486306
0.000365327
0.000234661
9.42813e-05
-5.60354e-05
-0.000216429
-0.000387144
-0.000568405
-0.000760506
-0.000963694
-0.00117823
-0.00140429
-0.00164198
-0.00189129
-0.00215203
-0.00242376
-0.00270588
-0.00299732
-0.00329681
-0.00360256
-0.00391239
-0.00422358
-0.00453294
-0.00483668
-0.00513047
-0.00540937
-0.00566795
-0.00590008
-0.00609926
-0.00625855
-0.00637051
-0.00642743
-0.00642144
-0.00634452
-0.00618861
-0.00594595
-0.00560877
-0.00516987
-0.00462254
-0.00396064
-0.00317899
-0.00227293
-0.00123948
-7.62509e-05
0.00121731
0.00264092
0.00419218
0.00586752
0.00766155
0.00956733
0.0115763
0.0136784
0.015862
0.0181142
0.0204209
0.0227669
0.025136
0.027511
0.0298757
0.0322117
0.0345037
0.0367348
0.0388809
0.0409279
0.0428545
0.0446713
0.046393
0.00121116
0.00121574
0.00123248
0.00123817
0.00124557
0.0012444
0.00124043
0.00122881
0.00121167
0.00118679
0.00115477
0.00111453
0.00106615
0.00100905
0.00094319
0.000868218
0.000784123
0.000690674
0.0005879
0.000475616
0.000353869
0.000222477
8.14462e-05
-6.94243e-05
-0.000230207
-0.000401142
-0.000582366
-0.000774123
-0.000976595
-0.00118994
-0.00141428
-0.00164963
-0.00189581
-0.00215256
-0.00241934
-0.0026954
-0.00297956
-0.0032704
-0.00356606
-0.00386424
-0.00416211
-0.00445647
-0.00474345
-0.00501879
-0.00527762
-0.00551457
-0.0057238
-0.00589903
-0.00603368
-0.00612077
-0.00615314
-0.00612351
-0.0060246
-0.00584912
-0.00559025
-0.00524115
-0.00479566
-0.00424819
-0.00359378
-0.00282841
-0.00194884
-0.000953084
0.000159895
0.00138953
0.00273421
0.00419062
0.00575444
0.00741935
0.00917815
0.0110218
0.0129406
0.0149229
0.0169566
0.0190287
0.0211251
0.0232314
0.0253328
0.0274149
0.029463
0.0314641
0.0334048
0.0352674
0.0370403
0.0387077
0.0402756
0.0417611
0.00120865
0.00121331
0.00123011
0.00123576
0.00124304
0.00124169
0.00123746
0.00122553
0.00120801
0.0011827
0.00115019
0.00110941
0.00106045
0.0010027
0.000936155
0.000860458
0.00077561
0.000681385
0.000577826
0.000464762
0.000342264
0.00021018
6.85233e-05
-8.28455e-05
-0.000243978
-0.000415051
-0.00059615
-0.000787461
-0.000989077
-0.0012011
-0.00142353
-0.00165628
-0.00189913
-0.00215165
-0.0024132
-0.0026829
-0.00295947
-0.00324141
-0.00352669
-0.00381298
-0.00409741
-0.0043767
-0.00464701
-0.00490416
-0.00514335
-0.00535937
-0.00554668
-0.00569933
-0.00581107
-0.00587547
-0.00588588
-0.00583573
-0.00571837
-0.00552749
-0.00525702
-0.00490112
-0.00445476
-0.00391318
-0.00327264
-0.00253027
-0.00168388
-0.000732516
0.000323653
0.00148328
0.00274365
0.0041009
0.00555
0.00708431
0.00869652
0.0103777
0.0121183
0.0139074
0.0157338
0.0175858
0.0194506
0.0213155
0.0231682
0.0249967
0.0267888
0.0285339
0.0302221
0.0318405
0.0333798
0.034829
0.036191
0.0374829
0.00120611
0.0012108
0.00122764
0.00123324
0.00124039
0.00123884
0.00123434
0.0012221
0.00120419
0.00117844
0.00114544
0.00110411
0.00105455
0.000996163
0.00092893
0.000852509
0.000766909
0.000671912
0.000567577
0.00045376
0.000330529
0.000197772
5.5539e-05
-9.62844e-05
-0.000257703
-0.000428834
-0.000609717
-0.000800461
-0.00100109
-0.00121162
-0.00143196
-0.00166193
-0.00190119
-0.00214922
-0.00240527
-0.00266831
-0.00293705
-0.00320978
-0.00348451
-0.00375872
-0.00402962
-0.00429385
-0.00454768
-0.00478695
-0.00500707
-0.00520302
-0.00536954
-0.00550103
-0.00559168
-0.00563558
-0.00562665
-0.00555901
-0.00542681
-0.00522449
-0.0049468
-0.00458889
-0.00414674
-0.00361651
-0.00299544
-0.00228165
-0.00147401
-0.000572445
0.000422069
0.00150724
0.00268002
0.0039359
0.00526945
0.0066743
0.00814281
0.00966652
0.0112364
0.0128428
0.014475
0.0161226
0.0177747
0.0194206
0.0210498
0.022652
0.024218
0.0257395
0.0272094
0.0286182
0.029959
0.0312243
0.0324155
0.0335482
0.00120354
0.0012082
0.00122507
0.0012306
0.00123761
0.00123586
0.00123108
0.0012185
0.0012002
0.00117402
0.00114051
0.00109864
0.00104847
0.000989437
0.000921514
0.000844371
0.000758023
0.000662267
0.00055717
0.000442605
0.000318675
0.000185284
4.25161e-05
-0.000109712
-0.000271342
-0.000442448
-0.000623012
-0.000813073
-0.00101258
-0.00122144
-0.0014395
-0.00166648
-0.00190191
-0.00214522
-0.00239548
-0.00265165
-0.00291227
-0.00317559
-0.00343953
-0.0037016
-0.00395889
-0.00420821
-0.00444579
-0.00466763
-0.00486931
-0.00504611
-0.00519304
-0.00530489
-0.00537635
-0.00540197
-0.00537636
-0.00529429
-0.00515063
-0.00494064
-0.00465985
-0.00430435
-0.00387092
-0.00335675
-0.00275992
-0.00207937
-0.00131482
-0.000467043
0.000462407
0.00147069
0.00255434
0.00370872
0.00492812
0.0062063
0.00753601
0.0089094
0.0103181
0.0117532
0.0132055
0.0146657
0.0161245
0.0175733
0.0190026
0.0204048
0.0217728
0.0231002
0.0243817
0.0256108
0.0267826
0.0278922
0.0289404
0.0299404
0.00120094
0.00120552
0.00122239
0.00122784
0.00123469
0.00123272
0.00122766
0.00121475
0.00119604
0.00116941
0.00113539
0.00109297