/*--------------------------------*- C++ -*----------------------------------*\
  =========                 |
  \\      /  F ield         | OpenFOAM: The Open Source CFD Toolbox
   \\    /   O peration     | Website:  https://openfoam.org
    \\  /    A nd           | Version:  9
     \\/     M anipulation  |
\*---------------------------------------------------------------------------*/
FoamFile
{
    format      ascii;
    class       surfaceScalarField;
    location    "2250";
    object      phi;
}
// * * * * * * * * * * * * * * * * * * * * * * * * * * * * * * * * * * * * * //

dimensions      [0 3 -1 0 0 0 0];

internalField   nonuniform List<scalar> 
26965
(
3.45316e-05
0.490455
-0.490489
3.4397e-05
0.462744
-0.462744
3.42427e-05
0.436542
-0.436542
3.40661e-05
0.411792
-0.411792
3.38744e-05
0.388491
-0.38849
3.36706e-05
0.366504
-0.366503
3.34546e-05
0.345726
-0.345725
6.77763e-05
0.326124
-0.326158
6.75384e-05
0.307663
-0.307663
3.27457e-05
0.290275
-0.29024
6.70327e-05
0.273785
-0.27382
6.67668e-05
0.258299
-0.258299
6.64898e-05
0.243644
-0.243643
0.000100746
0.229853
-0.229887
6.59125e-05
0.216858
-0.216823
8.63339e-05
0.204551
-0.204571
9.29314e-05
0.192967
-0.192974
9.60707e-05
0.182041
-0.182044
0.000106108
0.171727
-0.171738
0.000109235
0.162005
-0.162009
0.000119266
0.152827
-0.152837
0.00012584
0.144174
-0.14418
0.000132414
0.136009
-0.136015
0.000138994
0.128311
-0.128318
0.000152477
0.121043
-0.121056
0.00015907
0.114193
-0.114199
0.000169123
0.107731
-0.107741
0.000182651
0.101632
-0.101645
0.00019274
0.0958829
-0.095893
0.000202868
0.0904594
-0.0904695
0.000216476
0.085344
-0.0853576
0.000230125
0.080516
-0.0805297
0.000243816
0.0759686
-0.0759823
0.000257575
0.071674
-0.0716878
0.00027485
0.0676254
-0.0676427
0.000292202
0.0638089
-0.0638263
0.00030965
0.0602108
-0.0602282
0.000327195
0.0568135
-0.0568311
0.000344863
0.0536103
-0.053628
0.000366125
0.0505908
-0.0506121
0.000391005
0.047741
-0.0477659
0.000412601
0.0450609
-0.0450825
0.000437862
0.0425262
-0.0425515
0.000466826
0.040137
-0.0401659
0.000492585
0.0378861
-0.0379118
0.000522109
0.0357631
-0.0357926
0.000551967
0.033761
-0.0337909
0.000585677
0.0318729
-0.0319066
0.000619808
0.0300917
-0.0301258
0.000650923
0.0284138
-0.0284449
0.000689509
0.0268287
-0.0268673
0.000725173
0.0253364
-0.025372
0.000768419
0.0239228
-0.023966
0.000805333
0.0225982
-0.0226352
0.000849945
0.0213394
-0.021384
0.000893513
0.0201573
-0.0202008
0.000938944
0.0190395
-0.0190849
0.00098553
0.0179847
-0.0180313
0.00103334
0.0169885
-0.0170363
0.00108204
0.0160477
-0.0160964
0.00113204
0.0151584
-0.0152084
0.00118266
0.0143184
-0.014369
0.00123434
0.013524
-0.0135757
0.0012861
0.0127728
-0.0128245
0.00133898
0.0120614
-0.0121143
0.00139232
0.0113878
-0.0114411
0.00144557
0.0107501
-0.0108033
0.00149916
0.0101443
-0.0101978
0.00155297
0.00956973
-0.00962355
0.00160696
0.00902319
-0.00907718
0.00166019
0.00850312
-0.00855635
0.00171281
0.00800684
-0.00805946
0.00176409
0.00753226
-0.00758354
0.00181357
0.00707763
-0.00712711
0.00185995
0.00664262
-0.006689
0.00190218
0.00622499
-0.00626722
0.00193761
0.00582032
-0.00585575
0.00196361
0.00541531
-0.00544132
0.00198007
0.00500794
-0.00502441
0.00198798
0.00463142
-0.00463932
0.00198431
0.00433587
-0.00433221
0.00195554
0.00412092
-0.00409215
0.00188191
0.00389567
-0.00382205
0.0017686
0.00355353
-0.00344021
0.00164046
0.0030842
-0.00295606
0.00256199
-0.00243734
3.45302e-05
0.49042
3.43935e-05
0.462744
3.42366e-05
0.436542
3.40568e-05
0.411792
3.38626e-05
0.388491
6.82055e-05
0.366469
6.7985e-05
0.345726
3.3206e-05
0.326159
3.29657e-05
0.307663
6.72602e-05
0.29024
6.69982e-05
0.273786
6.67281e-05
0.2583
6.64486e-05
0.243644
6.61601e-05
0.229853
0.000100402
0.216823
8.28256e-05
0.204568
8.59648e-05
0.192964
9.60036e-05
0.182031
9.91315e-05
0.171724
0.000109157
0.161995
0.000112279
0.152823
0.000118844
0.144167
0.000125417
0.136002
0.000135436
0.128301
0.000142015
0.121036
0.000152056
0.114183
0.000162103
0.107721
0.000172172
0.101622
0.000182262
0.0958728
0.000195827
0.0904458
0.000205977
0.0853338
0.000219622
0.0805024
0.000233321
0.0759549
0.000247066
0.0716603
0.00026089
0.0676116
0.000278243
0.0637916
0.000299152
0.0601898
0.000316708
0.056796
0.000334378
0.0535927
0.000355658
0.0505695
0.000373627
0.047723
0.000398702
0.0450358
0.000423984
0.042501
0.000446037
0.0401149
0.00047182
0.0378603
0.0004979
0.035737
0.000527787
0.0337311
0.000558052
0.0318426
0.000588734
0.030061
0.000623358
0.0283791
0.000658486
0.0267936
0.000694174
0.0253007
0.000726958
0.02389
0.000767336
0.0225579
0.000806659
0.0213001
0.000847427
0.0201165
0.000888909
0.018998
0.000931533
0.0179421
0.0009753
0.0169447
0.00101992
0.0160031
0.0010648
0.0151136
0.0011105
0.0142727
0.0011564
0.0134781
0.00120331
0.0127259
0.00124985
0.0120149
0.00129653
0.0113411
0.00134344
0.0107031
0.0013896
0.0100981
0.00143597
0.00952337
0.00148135
0.00897781
0.00152644
0.00845802
0.0015702
0.00796308
0.00161184
0.00749061
0.00165153
0.00703794
0.00168843
0.00660571
0.00172027
0.00619316
0.00174652
0.00579407
0.00176358
0.00539824
0.00176975
0.00500178
0.00176806
0.00463311
0.00175946
0.00434447
0.00173566
0.00414472
0.00167851
0.00395282
0.00158698
0.00364506
0.00148388
0.0031873
0.00264711
3.45293e-05
0.490386
3.43893e-05
0.462744
3.42291e-05
0.436542
3.40456e-05
0.411792
3.38475e-05
0.388491
3.36364e-05
0.366469
3.34127e-05
0.345726
6.77264e-05
0.326124
6.74791e-05
0.307664
6.72225e-05
0.290241
6.6957e-05
0.273786
6.66784e-05
0.2583
6.63933e-05
0.243644
6.60967e-05
0.229853
6.57954e-05
0.216824
8.27523e-05
0.204552
8.93389e-05
0.192958
9.24639e-05
0.182028
9.90387e-05
0.171718
0.000102154
0.161992
0.000112169
0.152813
0.000118735
0.144161
0.000125292
0.135996
0.000135313
0.128291
0.00014188
0.121029
0.000151914
0.114173
0.000161954
0.107711
0.000168563
0.101615
0.000182095
0.0958593
0.000188757
0.0904391
0.000205805
0.0853168
0.000215991
0.0804922
0.000229682
0.0759412
0.000243438
0.0716465
0.000257256
0.0675978
0.000274618
0.0637742
0.00028861
0.0601759
0.000306172
0.0567784
0.000327318
0.0535715
0.000345144
0.0505517
0.000366593
0.0477016
0.000388227
0.0450142
0.000410077
0.0424791
0.000435622
0.0400894
0.000457969
0.0378379
0.000487559
0.0357074
0.000514015
0.0337047
0.000540846
0.0318158
0.00057157
0.0300302
0.000602755
0.0283479
0.000634444
0.0267619
0.00066666
0.0252685
0.000702961
0.0238537
0.000739894
0.0225209
0.000775378
0.0212646
0.000812937
0.0200789
0.000851573
0.0189594
0.000891318
0.0179023
0.000931111
0.0169049
0.000971358
0.0159629
0.00101274
0.0150722
0.00105392
0.0142315
0.00109562
0.0134364
0.00113682
0.0126847
0.00117808
0.0119736
0.00121918
0.0113
0.00125981
0.0106625
0.00129994
0.010058
0.00133941
0.0094839
0.00137789
0.00893932
0.00141491
0.008421
0.00145041
0.00792758
0.00148446
0.00745657
0.00151496
0.00700743
0.00154327
0.0065774
0.00156747
0.00616896
0.00158549
0.00577605
0.00159469
0.00538904
0.0015941
0.00500237
0.00158819
0.00463903
0.00158137
0.00435128
0.00156617
0.00415992
0.00152392
0.00399508
0.00144558
0.0037234
0.00135522
0.00327766
0.00270555
3.45285e-05
0.490351
3.43844e-05
0.462744
6.87726e-05
0.436508
3.40321e-05
0.411827
6.83795e-05
0.388457
3.36123e-05
0.366504
6.79327e-05
0.345692
3.31426e-05
0.326159
3.28928e-05
0.307664
6.71751e-05
0.290206
3.23577e-05
0.273821
6.66197e-05
0.258266
6.63259e-05
0.243644
6.60244e-05
0.229854
6.57112e-05
0.216824
8.26605e-05
0.204535
8.57882e-05
0.192954
9.23621e-05
0.182021
9.89257e-05
0.171711
0.000105487
0.161986
0.000112043
0.152807
0.000118593
0.144154
0.00012515
0.135989
0.000131704
0.128285
0.000141716
0.121019
0.000148283
0.114166
0.00015832
0.107701
0.000168369
0.101605
0.000178445
0.0958492
0.000192004
0.0904256
0.000202143
0.0853066
0.000212325
0.080482
0.000226018
0.0759275
0.000243222
0.0716293
0.000257041
0.067584
0.00027095
0.0637603
0.000288412
0.0601584
0.000305978
0.0567608
0.000323684
0.0535538
0.000341522
0.0505339
0.000362998
0.0476801
0.000384663
0.0449925
0.000406537
0.0424572
0.00042866
0.0400672
0.000454516
0.0378121
0.000477211
0.0356847
0.000503719
0.0336782
0.000534081
0.0317854
0.000561387
0.0300029
0.000589147
0.0283202
0.000620887
0.0267301
0.000656658
0.0252327
0.000689512
0.0238208
0.000719502
0.0224909
0.000754996
0.0212291
0.000790492
0.0200435
0.00082632
0.0189236
0.000862489
0.0178662
0.0008994
0.016868
0.000937072
0.0159252
0.000974005
0.0150352
0.00101113
0.0141944
0.00104821
0.0133993
0.00108529
0.0126476
0.00112183
0.0119371
0.00115764
0.0112642
0.00119314
0.010627
0.00122747
0.0100236
0.00126065
0.00945072
0.00129258
0.00890738
0.00132311
0.00839047
0.00135183
0.00789887
0.00137785
0.00743055
0.00140176
0.00698352
0.00142184
0.00655732
0.001438
0.00615281
0.0014488
0.00576525
0.0014521
0.00538574
0.00144665
0.00500782
0.0014363
0.00464937
0.00142674
0.00436085
0.00141311
0.00417356
0.00137738
0.0040308
0.00130793
0.00379286
0.00122363
0.00336195
0.00275551
-2.62386e-08
0.490351
3.43785e-05
0.46271
3.42095e-05
0.436508
3.40158e-05
0.411827
3.3807e-05
0.388457
6.8134e-05
0.36647
3.33484e-05
0.345727
6.76497e-05
0.326125
6.73894e-05
0.307664
3.25742e-05
0.290241
6.68382e-05
0.273786
6.65467e-05
0.258266
6.62446e-05
0.243645
6.59345e-05
0.229854
0.000100154
0.21679
8.25579e-05
0.204552
8.91247e-05
0.192948
9.22322e-05
0.182018
9.87892e-05
0.171705
0.00010534
0.161979
0.000111883
0.1528
0.00011843
0.144148
0.000128422
0.135979
0.00013497
0.128278
0.000141519
0.121013
0.000151529
0.114156
0.000161557
0.10769
0.000171602
0.101595
0.00018167
0.0958392
0.000191761
0.0904155
0.000201894
0.0852965
0.000218986
0.0804649
0.000232664
0.0759138
0.000242962
0.071619
0.000260246
0.0675667
0.000274153
0.0637464
0.000291623
0.0601409
0.000309208
0.0567433
0.000326924
0.0535361
0.000344796
0.050516
0.000366294
0.0476586
0.000384529
0.0449743
0.000406445
0.0424353
0.000432076
0.0400416
0.000454522
0.0377896
0.000480748
0.0356585
0.000507321
0.0336516
0.000530805
0.031762
0.000561662
0.0299721
0.000589504
0.0282923
0.000617844
0.0267018
0.000646723
0.0252038
0.000679654
0.0237879
0.000713161
0.0224574
0.000744888
0.0211974
0.000777956
0.0200104
0.000811674
0.0188898
0.000845382
0.0178325
0.000879444
0.016834
0.000913472
0.0158912
0.000947154
0.0150016
0.000981136
0.0141604
0.00101476
0.0133657
0.0010473
0.0126151
0.00107937
0.011905
0.00111065
0.0112329
0.001141
0.0105967
0.00117019
0.00999444
0.00119792
0.009423
0.00122436
0.00888095
0.00124874
0.00836609
0.00127102
0.00787659
0.00129053
0.00741104
0.00130722
0.00696684
0.00132017
0.00654437
0.00132986
0.00614312
0.00133449
0.00576062
0.00133141
0.00538883
0.00132056
0.00501867
0.00130476
0.00466517
0.00128991
0.0043757
0.00127455
0.00418892
0.00124594
0.00405941
0.00118655
0.00385225
0.00110865
0.00343986
0.00280561
3.45262e-05
0.490317
3.43719e-05
0.46271
3.41969e-05
0.436508
6.85492e-05
0.411793
3.37811e-05
0.388492
3.35516e-05
0.36647
3.33085e-05
0.345727
3.30534e-05
0.326125
6.73324e-05
0.30763
6.70537e-05
0.290241
6.67637e-05
0.273787
6.64628e-05
0.258266
6.61531e-05
0.243645
0.000100372
0.22982
6.55014e-05
0.216825
8.58825e-05
0.204532
8.899e-05
0.192945
9.55433e-05
0.182012
0.000102086
0.171698
0.000108622
0.161973
0.000115156
0.152794
0.000125137
0.144138
0.000131672
0.135973
0.000138204
0.128271
0.000148199
0.121003
0.000158198
0.114146
0.000164761
0.107684
0.000178244
0.101582
0.000184849
0.0958326
0.000198391
0.0904019
0.000211971
0.0852829
0.000222143
0.0804547
0.00023583
0.0759001
0.000249577
0.0716053
0.000263406
0.0675528
0.000280775
0.063729
0.000298255
0.0601234
0.00031586
0.0567257
0.000333596
0.0535184
0.000354948
0.0504946
0.000373023
0.0476405
0.000394759
0.0449526
0.000416723
0.0424134
0.000435475
0.0400229
0.000461449
0.0377637
0.000487745
0.0356322
0.000510923
0.0336284
0.000541439
0.0317314
0.000565436
0.0299481
0.000593367
0.0282644
0.000625281
0.0266699
0.000654251
0.0251748
0.000680287
0.0237618
0.000713915
0.0224238
0.000743961
0.0211673
0.000775325
0.019979
0.000806641
0.0188585
0.000838272
0.0178008
0.000869831
0.0168024
0.000900951
0.01586
0.000932066
0.0149704
0.000962359
0.0141301
0.00099214
0.0133359
0.00102109
0.0125861
0.00104916
0.011877
0.00107622
0.0112058
0.00110167
0.0105712
0.00112616
0.00996995
0.00114884
0.00940032
0.0011698
0.00885998
0.00118835
0.00834754
0.00120471
0.00786023
0.00121839
0.00739735
0.00122871
0.00695651
0.00123593
0.00653715
0.00123907
0.00613998
0.00123733
0.00576235
0.0012291
0.00539706
0.00121313
0.00503464
0.00119186
0.00468643
0.00117265
0.0043949
0.00115631
0.00420527
0.00113118
0.00408453
0.00108041
0.00390301
0.00100627
0.003514
0.00286046
3.45248e-05
0.490282
3.43644e-05
0.46271
3.41829e-05
0.436509
3.39761e-05
0.411793
3.37524e-05
0.388492
3.35148e-05
0.36647
6.78112e-05
0.345693
6.7546e-05
0.326125
3.27215e-05
0.307665
6.69795e-05
0.290207
6.66777e-05
0.273787
6.6368e-05
0.258267
6.60454e-05
0.243645
6.57143e-05
0.22982
9.99099e-05
0.21679
8.91961e-05
0.204543
9.57422e-05
0.192938
0.00010228
0.182005
0.000108809
0.171692
0.000115335
0.161966
0.000121856
0.152787
0.000128374
0.144131
0.000134891
0.135966
0.000144863
0.128262
0.00015484
0.120993
0.000161377
0.11414
0.00017483
0.10767
0.000181399
0.101575
0.000198349
0.0958156
0.000208428
0.0903919
0.000218552
0.0852728
0.000232172
0.0804411
0.00024585
0.0758864
0.000263058
0.0715881
0.000276885
0.067539
0.000294274
0.0637116
0.000308308
0.0601094
0.000325924
0.056708
0.000347142
0.0534972
0.000365069
0.0504767
0.000386641
0.047619
0.000408423
0.0449308
0.000430444
0.0423913
0.000452728
0.0400006
0.000478771
0.0377376
0.000501678
0.0356093
0.000528417
0.0336017
0.000552079
0.0317078
0.000579651
0.0299205
0.00060769
0.0282364
0.00063276
0.0266448
0.000661822
0.0251458
0.000694961
0.0237287
0.000721703
0.0223971
0.000751481
0.0211375
0.000780807
0.0199497
0.00081044
0.0188289
0.000839976
0.0177713
0.000869087
0.0167733
0.000897717
0.0158314
0.000925885
0.0149423
0.000953504
0.0141025
0.000979886
0.0133095
0.00100534
0.0125607
0.00102972
0.0118526
0.00105278
0.0111828
0.00107414
0.0105499
0.00109397
0.00995012
0.00111156
0.00938272
0.00112721
0.00884433
0.00114104
0.00833371
0.00115195
0.00784932
0.00115995
0.00738936
0.00116455
0.00695191
0.00116564
0.00653606
0.0011628
0.00614282
0.00115588
0.00576927
0.00114244
0.00541049
0.0011215
0.00505559
0.00109587
0.00471207
0.0010716
0.00441917
0.00105191
0.00422496
0.00102806
0.00410839
0.000981517
0.00394955
0.000907224
0.00358829
0.00292336
6.90771e-05
0.490213
3.43559e-05
0.462745
3.41673e-05
0.436509
3.39522e-05
0.411793
6.82708e-05
0.388458
6.80223e-05
0.366471
6.77589e-05
0.345693
6.74834e-05
0.326126
6.7196e-05
0.307665
6.68952e-05
0.290207
6.65835e-05
0.273787
6.62584e-05
0.258267
0.000100467
0.243611
0.00010012
0.22982
6.52246e-05
0.216825
9.59445e-05
0.204512
0.000102477
0.192932
0.000109
0.181999
0.000112061
0.171689
0.000122025
0.161956
0.000128528
0.152781
0.00013503
0.144125
0.000144985
0.135956
0.000154942
0.128252
0.000164905
0.120983
0.000174876
0.11413
0.000181413
0.107664
0.00019833
0.101558
0.000204912
0.095809
0.000218435
0.0903783
0.000235454
0.0852558
0.000245613
0.0804309
0.000262749
0.0758693
0.000276496
0.0715743
0.000293795
0.0675217
0.000307724
0.0636977
0.000328693
0.0600884
0.00034633
0.0566904
0.000364121
0.0534794
0.000385542
0.0504553
0.0004037
0.0476008
0.000425531
0.0449089
0.000447606
0.0423693
0.000473425
0.0399748
0.000496084
0.0377149
0.000519077
0.0355863
0.000545913
0.0335749
0.000573156
0.0316805
0.000600842
0.0298928
0.000629004
0.0282082
0.000654188
0.0266196
0.000683401
0.0251166
0.000709671
0.0237024
0.000740011
0.0223667
0.000766763
0.0211108
0.000795146
0.0199213
0.000823089
0.018801
0.00085055
0.0177438
0.000877543
0.0167463
0.0009037
0.0158052
0.000929287
0.0149167
0.000953609
0.0140782
0.000976616
0.0132865
0.000998802
0.0125385
0.00101968
0.0118317
0.0010384
0.0111641
0.00105598
0.0105323
0.00107131
0.00993479
0.00108503
0.009369
0.00109591
0.00883346
0.00110427
0.00832535
0.00111014
0.00784345
0.00111307
0.00738642
0.00111223
0.00695276
0.00110785
0.00654044
0.00109989
0.00615078
0.00108657
0.0057826
0.00106827
0.00542879
0.00104312
0.00508074
0.00101197
0.00474321
0.000982523
0.00444862
0.000957799
0.00424968
0.000931624
0.00413456
0.000887193
0.00399398
0.000812285
0.0036632
0.00299856
3.45216e-05
0.490179
6.89001e-05
0.46271
6.87024e-05
0.436509
6.84778e-05
0.411794
3.36837e-05
0.388492
6.79754e-05
0.366436
3.31532e-05
0.345728
6.74155e-05
0.326091
6.71151e-05
0.307665
6.68021e-05
0.290208
0.00010102
0.273753
0.000100682
0.258267
6.57888e-05
0.243646
6.54305e-05
0.229821
9.96007e-05
0.216791
0.000102671
0.204509
0.000109187
0.192925
0.000115694
0.181992
0.000125649
0.171679
0.000128683
0.161953
0.000138629
0.152771
0.000148564
0.144115
0.000158502
0.135946
0.000164989
0.128245
0.00017494
0.120973
0.000184895
0.11412
0.000198324
0.10765
0.000208314
0.101548
0.000221791
0.0957956
0.000235303
0.0903648
0.000248864
0.0852422
0.000265927
0.0804139
0.000279599
0.0758556
0.000293359
0.0715605
0.00031065
0.0675044
0.000331515
0.0636769
0.000345579
0.0600744
0.000366701
0.0566693
0.000384522
0.0534615
0.00040598
0.0504338
0.000431103
0.0475757
0.000452996
0.0448871
0.000475147
0.0423471
0.000501043
0.0399489
0.000523791
0.0376922
0.000550355
0.0355597
0.000573829
0.0335514
0.000601192
0.0316532
0.000625526
0.0298685
0.000653821
0.0281799
0.000682619
0.0265908
0.000708482
0.0250907
0.000734894
0.023676
0.000761867
0.0223398
0.000790124
0.0210825
0.000816526
0.0198949
0.000842789
0.0187747
0.000868221
0.0177184
0.000893112
0.0167214
0.000916763
0.0157816
0.000939782
0.0148937
0.000961107
0.0140568
0.000981729
0.0132659
0.0010006
0.0125196
0.00101767
0.0118146
0.00103287
0.0111489
0.00104652
0.0105186
0.00105776
0.00992355
0.00106695
0.00935981
0.00107369
0.00882672
0.0010775
0.00832154
0.00107824
0.00784271
0.0010759
0.00738876
0.00107023
0.00695843
0.00106063
0.00655003
0.00104692
0.00616449
0.00102914
0.00580038
0.00100569
0.00545224
0.000975207
0.00511122
0.000939892
0.00477853
0.000903892
0.00448462
0.000872855
0.00428072
0.000842614
0.0041648
0.000797605
0.00403899
0.000720358
0.00374045
0.00308921
3.45197e-05
0.490144
3.43361e-05
0.46271
3.41303e-05
0.436509
3.38963e-05
0.411794
6.81941e-05
0.388458
3.3374e-05
0.366471
6.7638e-05
0.345693
6.73378e-05
0.326092
6.70242e-05
0.307665
6.66974e-05
0.290208
6.63587e-05
0.273753
6.60057e-05
0.258268
0.000100184
0.243612
9.98063e-05
0.229821
9.94171e-05
0.216791
0.000109381
0.204499
0.000119334
0.192915
0.000125819
0.181986
0.000132303
0.171672
0.000142232
0.161943
0.000148695
0.152764
0.00015862
0.144105
0.000168535
0.135936
0.00018191
0.128232
0.000188384
0.120967
0.00020178
0.114106
0.000215187
0.107637
0.000225167
0.101538
0.00024209
0.0957786
0.00025559
0.0903513
0.000269136
0.0852287
0.000282743
0.0804003
0.000299873
0.0758385
0.000317077
0.0715433
0.000337837
0.0674837
0.0003518
0.0636629
0.000376254
0.0600499
0.000393945
0.0566516
0.000415265
0.0534402
0.000440227
0.0504089
0.000458485
0.0475574
0.000483903
0.0448616
0.000506124
0.0423249
0.000528646
0.0399263
0.000554956
0.0376659
0.000581628
0.0355331
0.000608693
0.0335243
0.000632711
0.0316292
0.000660659
0.0298406
0.000685613
0.028155
0.000714568
0.0265619
0.000740565
0.0250647
0.000767117
0.0236495
0.000794238
0.0223126
0.000819473
0.0210573
0.000844955
0.0198694
0.000869549
0.0187501
0.000893278
0.0176947
0.000915723
0.016699
0.000937622
0.0157597
0.000957435
0.0148739
0.000976485
0.0140378
0.000993757
0.0132486
0.00100932
0.012504
0.00102291
0.011801
0.00103504
0.0111367
0.00104443
0.0105092
0.00105169
0.00991629
0.00105664
0.00935486
0.00105906
0.0088243
0.00105837
0.00832223
0.00105484
0.00784624
0.00104755
0.00739606
0.00103681
0.00696918
0.00102231
0.00656453
0.00100379
0.00618301
0.00098086
0.00582331
0.000952421
0.00548068
0.000917685
0.00514596
0.000876252
0.00481996
0.000834106
0.00452676
0.000796812
0.00431801
0.0007609
0.00420071
0.000712375
0.00408752
0.000632202
0.00382062
0.00319805
3.45175e-05
0.49011
3.43247e-05
0.462711
6.86618e-05
0.436475
6.8416e-05
0.411794
6.815e-05
0.388458
6.78667e-05
0.366471
6.75674e-05
0.345694
6.72545e-05
0.326092
0.000101472
0.307631
0.000101129
0.290208
0.000100772
0.273754
0.000100404
0.258268
0.000100022
0.243612
0.000134166
0.229787
0.000133758
0.216792
0.000122979
0.20451
0.000129456
0.192909
0.000135929
0.181979
0.000145839
0.171662
0.000155745
0.161933
0.000165648
0.152755
0.000175548
0.144095
0.000185447
0.135926
0.000195349
0.128222
0.00020871
0.120953
0.000222088
0.114093
0.000232023
0.107627
0.000248895
0.101521
0.000258889
0.0957686
0.00027583
0.0903344
0.00029282
0.0852117
0.000309876
0.0803832
0.000327003
0.0758214
0.00034767
0.0715227
0.000364989
0.0674663
0.000385872
0.063642
0.000403445
0.0600323
0.000428081
0.056627
0.000449432
0.0534189
0.000470992
0.0503873
0.000496224
0.0475322
0.000518253
0.0448396
0.000544022
0.0422991
0.000570098
0.0399003
0.000596517
0.0376395
0.000619838
0.0355097
0.00064703
0.0334971
0.000674657
0.0316015
0.000699276
0.0298159
0.000727863
0.0281264
0.000753483
0.0265362
0.000779642
0.0250385
0.000806356
0.0236228
0.000830132
0.0222889
0.000855844
0.0210316
0.000879661
0.0198456
0.000902265
0.0187275
0.000924292
0.0176726
0.000944723
0.0166785
0.000964041
0.0157404
0.000981695
0.0148562
0.000997821
0.0140217
0.00101196
0.0132345
0.00102415
0.0124919
0.00103482
0.0117904
0.00104277
0.0111288
0.0010487
0.0105033
0.00105237
0.00991262
0.00105311
0.00935412
0.00105091
0.0088265
0.00104612
0.00832702
0.00103799
0.00785437
0.00102645
0.0074076
0.00101128
0.00698434
0.000991771
0.00658404
0.000968566
0.00620621
0.000940965
0.00585091
0.00090795
0.00551369
0.000867893
0.00518601
0.000822401
0.00486545
0.000773983
0.00457518
0.000729477
0.00436252
0.000687305
0.00424289
0.000634025
0.0041408
0.000549555
0.00390509
0.00332403
6.90689e-05
0.490041
6.88658e-05
0.462711
3.40854e-05
0.43651
6.83801e-05
0.41176
6.81011e-05
0.388459
6.78049e-05
0.366472
0.00010204
0.345659
6.71614e-05
0.326127
6.68165e-05
0.307632
0.000101004
0.290174
0.00010063
0.273754
0.000100242
0.258268
0.000134381
0.243578
9.9428e-05
0.229822
0.000133541
0.216758
0.000133102
0.20451
0.00013956
0.192902
0.000152913
0.181966
0.000159351
0.171656
0.000169238
0.161923
0.000179116
0.152745
0.000192443
0.144081
0.000202319
0.135917
0.000215652
0.128208
0.000228997
0.12094
0.000242349
0.11408
0.000255724
0.107614
0.000269124
0.101508
0.000289458
0.0957483
0.000302938
0.0903209
0.000319924
0.0851947
0.000340421
0.0803627
0.000357546
0.0758043
0.000378223
0.071502
0.000395549
0.067449
0.000419911
0.0636176
0.000440958
0.0600113
0.000462167
0.0566057
0.000487025
0.053394
0.000508631
0.0503657
0.000533941
0.0475069
0.000559506
0.044814
0.000588829
0.0422698
0.000615008
0.0398741
0.000638071
0.0376164
0.000668454
0.0354794
0.000692312
0.0334733
0.000720085
0.0315738
0.00074833
0.0297877
0.000773603
0.0281011
0.000799384
0.0265105
0.000825702
0.0250122
0.000849086
0.0235994
0.000873005
0.0222649
0.00089782
0.0210068
0.000920003
0.0198234
0.000941293
0.0187062
0.000960923
0.017653
0.000979221
0.0166602
0.000995779
0.0157238
0.00101118
0.0148408
0.00102438
0.0140085
0.00103546
0.0132234
0.00104483
0.0124825
0.0010516
0.0117836
0.0010566
0.0111238
0.00105867
0.0105012
0.00105833
0.00991296
0.00105502
0.00935743
0.0010492
0.00883232
0.00103992
0.0083363
0.00102737
0.00786692
0.00101171
0.00742326
0.000991814
0.00700424
0.000968185
0.00660767
0.000940348
0.00623405
0.000908081
0.00588318
0.000870673
0.0055511
0.000826909
0.00522978
0.000776157
0.0049162
0.000722708
0.00462863
0.00067187
0.00441336
0.00062336
0.0042914
0.000565568
0.00419859
0.00047761
0.00399305
0.00346302
3.45125e-05
0.490006
6.88521e-05
0.462677
6.86131e-05
0.43651
6.8342e-05
0.41176
6.80486e-05
0.388459
0.000102287
0.366437
6.74069e-05
0.345694
0.000101609
0.326093
0.000101246
0.307632
0.000100868
0.290175
0.000100475
0.273755
0.000134611
0.258234
9.96482e-05
0.243613
0.000133753
0.229788
0.000133304
0.216758
0.000150112
0.204493
0.000159999
0.192892
0.000166424
0.181959
0.000179746
0.171642
0.000189606
0.161914
0.000202917
0.152731
0.000209312
0.144075
0.000226072
0.1359
0.000239382
0.128195
0.000252699
0.120926
0.000266029
0.114066
0.000282837
0.107597
0.000299671
0.101491
0.000316546
0.0957314
0.000336915
0.0903005
0.000353884
0.0851777
0.000370932
0.0803457
0.00039151
0.0757837
0.000412191
0.0714813
0.000436433
0.0674248
0.000457362
0.0635967
0.000481893
0.0599868
0.000506607
0.056581
0.00053151
0.0533691
0.000556638
0.0503406
0.000582011
0.0474815
0.000611125
0.0447849
0.000633614
0.0422473
0.000663364
0.0398443
0.000690019
0.0375898
0.000717065
0.0354523
0.000744537
0.0334458
0.000768989
0.0315493
0.000797393
0.0297593
0.000822823
0.0280757
0.000848774
0.0264845
0.000875265
0.0249857
0.000902278
0.0235724
0.000922859
0.0222444
0.000945013
0.0209846
0.000965558
0.0198029
0.000984832
0.0186869
0.00100279
0.017635
0.001019
0.016644
0.00103306
0.0157098
0.00104525
0.0148286
0.00105571
0.013998
0.00106385
0.0132152
0.00106965
0.0124767
0.00107351
0.0117797
0.00107416
0.0111231
0.00107282
0.0105026
0.0010686
0.00991718
0.00106197
0.00936406
0.00105191
0.00884238
0.00103904
0.00834917
0.00102229
0.00788366
0.00100196
0.00744359
0.000978274
0.00702792
0.000950601
0.00663535
0.000918577
0.00626608
0.000882118
0.00591964
0.000840661
0.00559256
0.00079294
0.0052775
0.000738298
0.00497085
0.000679613
0.00468732
0.000623019
0.00446995
0.000569721
0.00434469
0.000508036
0.00426028
0.000419204
0.00408188
0.00360759
6.90634e-05
0.489937
6.88372e-05
0.462677
6.85852e-05
0.43651
6.82999e-05
0.41176
0.000102543
0.388425
6.76636e-05
0.366472
0.000101865
0.34566
0.000101501
0.326093
0.000101119
0.307632
0.000100722
0.290175
0.000134852
0.27372
0.000134423
0.258235
0.000133978
0.243614
0.000133521
0.229788
0.000133047
0.216759
0.000163647
0.204463
0.000173513
0.192883
0.000186817
0.181946
0.00019666
0.171633
0.000209948
0.1619
0.000219775
0.152721
0.00023651
0.144058
0.000249786
0.135887
0.000263075
0.128182
0.000279821
0.12091
0.000296586
0.114049
0.000313367
0.10758
0.000333635
0.101471
0.000350493
0.0957146
0.000367392
0.0902836
0.000387817
0.0851573
0.000411763
0.0803217
0.000435801
0.0757596
0.000456481
0.0714606
0.000480748
0.0674005
0.000505148
0.0635723
0.000529713
0.0599622
0.000554467
0.0565563
0.000582884
0.0533407
0.000608073
0.0503154
0.000636986
0.0474526
0.000662723
0.0447592
0.000692243
0.0422178
0.000718648
0.0398179
0.000748894
0.0375595
0.000772611
0.0354286
0.000803702
0.0334147
0.000831788
0.0315212
0.000856887
0.0297342
0.000882488
0.0280501
0.000908602
0.0264584
0.000931767
0.0249626
0.000955464
0.0235487
0.000979694
0.0222201
0.000997099
0.0209672
0.00101636
0.0197836
0.00103361
0.0186697
0.00104879
0.0176199
0.00106254
0.0166303
0.00107449
0.0156978
0.00108372
0.0148194
0.00109095
0.0139908
0.00109597
0.0132102
0.00109876
0.0124739
0.00109868
0.0117798
0.00109669
0.0111251
0.00109146
0.0105078
0.00108331
0.00992533
0.00107228
0.00937509
0.00105858
0.00885609
0.00104141
0.00836633
0.00102129
0.00790378
0.000997435
0.00746745
0.000969566
0.00705579
0.000937492
0.00666742
0.000901656
0.00630191
0.000861855
0.00595944
0.000816428
0.00563798
0.000765026
0.0053289
0.000707224
0.00502865
0.000644888
0.00474965
0.000584049
0.00453079
0.000526348
0.00440239
0.000463386
0.00432324
0.000374124
0.00417114
0.00375113
6.90602e-05
0.489868
6.8821e-05
0.462677
0.000103108
0.436476
0.000102806
0.411761
6.79291e-05
0.388459
0.000102134
0.366438
0.000101767
0.34566
0.000101383
0.326093
0.000135527
0.307598
0.000135107
0.290175
0.000134672
0.273721
0.000134221
0.258235
0.000168294
0.243579
0.000167809
0.229789
0.000201852
0.216725
0.000184071
0.20448
0.000197358
0.192869
0.000207184
0.181936
0.000220454
0.171619
0.000233714
0.161887
0.000246967
0.152708
0.00026367
0.144042
0.000276927
0.135873
0.000293633
0.128165
0.000310358
0.120893
0.000327093
0.114033
0.000350769
0.107557
0.000367563
0.101454
0.000387851
0.0956943
0.000408195
0.0902633
0.000432058
0.0851334
0.000455997
0.0802978
0.00047658
0.0757391
0.000504189
0.071433
0.000528464
0.0673762
0.000552899
0.0635479
0.000580959
0.0599341
0.000609206
0.056528
0.000634224
0.0533157
0.000666409
0.0502832
0.000691938
0.0474271
0.000721233
0.0447299
0.000750861
0.0421882
0.000777383
0.0397914
0.000807759
0.0375291
0.000838558
0.0353978
0.000862864
0.0333904
0.000891106
0.031493
0.000919842
0.0297054
0.00094561
0.0280243
0.000968431
0.0264356
0.000991761
0.0249392
0.00101212
0.0235283
0.00103298
0.0221993
0.00105399
0.0209462
0.00107093
0.0197667
0.00108613
0.0186545
0.0010993
0.0176067
0.00111025
0.0166193
0.00111891
0.0156892
0.00112561
0.0148127
0.00112985
0.0139865
0.00113152
0.0132086
0.00113075
0.0124747
0.00112744
0.0117831
0.00112114
0.0111314
0.00111264
0.0105163
0.00110132
0.00993666
0.0010864
0.00939001
0.00106896
0.00887352
0.00104806
0.00838723
0.00102377
0.00792807
0.000995798
0.00749542
0.000964633
0.00708696
0.000929199
0.00670285
0.000889953
0.00634116
0.000846016
0.00600337
0.000797975
0.00568603
0.000743904
0.00538297
0.000683164
0.00508939
0.000617878
0.00481494
0.000553421
0.00459525
0.00049314
0.00446268
0.000429532
0.00438685
0.00034273
0.00425794
0.00389058
0.00010361
0.489764
0.000103357
0.462677
0.000103076
0.436476
0.000102758
0.411761
0.000102414
0.38846
0.000136599
0.366404
0.000136211
0.345661
0.000135804
0.326094
0.00013538
0.307599
0.000134937
0.290176
0.000134478
0.273721
0.000168544
0.258201
0.00016805
0.24358
0.000202082
0.229755
0.000167015
0.21676
0.000207924
0.204439
0.000217732
0.192859
0.00023098
0.181923
0.00024422
0.171606
0.000257447
0.161874
0.000277582
0.152688
0.000290806
0.144028
0.000307479
0.135857
0.000327615
0.128145
0.000347761
0.120873
0.000367934
0.114013
0.000384667
0.10754
0.000408352
0.10143
0.000428621
0.095674
0.000455865
0.090236
0.000479717
0.0851096
0.000503657
0.0802738
0.000531151
0.0757116
0.000555313
0.0714089
0.000583072
0.0673485
0.000614432
0.0635165
0.000642535
0.059906
0.000670841
0.0564997
0.000699375
0.0532871
0.000728165
0.0502544
0.000760711
0.0473945
0.000790109
0.0447005
0.000819849
0.0421584