/*--------------------------------*- C++ -*----------------------------------*\
  =========                 |
  \\      /  F ield         | OpenFOAM: The Open Source CFD Toolbox
   \\    /   O peration     | Website:  https://openfoam.org
    \\  /    A nd           | Version:  9
     \\/     M anipulation  |
\*---------------------------------------------------------------------------*/
FoamFile
{
    format      ascii;
    class       volScalarField;
    location    "2250";
    object      ReThetat;
}
// * * * * * * * * * * * * * * * * * * * * * * * * * * * * * * * * * * * * * //

dimensions      [0 0 0 0 0 0 0];

internalField   nonuniform List<scalar> 
13617
(
1063.55
1046.45
1043.54
1040.61
1037.54
1034.43
1031.29
1028.13
1024.95
1021.77
1018.59
1015.4
1012.23
1009.06
1005.91
1002.78
999.664
996.574
993.51
990.472
987.461
984.475
981.511
978.565
975.632
972.7
969.76
966.797
963.796
960.736
957.594
954.342
950.944
947.366
943.549
939.447
934.888
928.774
919.95
908.995
896.243
881.803
865.801
848.368
829.679
809.919
789.336
768.192
746.795
725.466
704.524
684.324
665.181
647.425
631.387
617.388
605.712
596.538
590.078
586.3
583.898
582.292
581.274
580.757
580.713
581.147
582.091
583.611
585.855
589.081
593.517
599.049
605.258
611.983
619.36
626.534
632.162
637.549
647.649
667.084
690.906
703.061
689.329
656.727
623.792
604.847
1066.19
1046.26
1043.34
1040.43
1037.37
1034.27
1031.14
1027.99
1024.82
1021.65
1018.47
1015.3
1012.14
1008.98
1005.84
1002.72
999.624
996.55
993.504
990.484
987.495
984.53
981.593
978.673
975.768
972.866
969.958
967.027
964.058
961.03
957.917
954.689
951.309
947.737
943.917
939.786
935.064
928.885
920.032
908.804
895.688
880.806
864.311
846.364
827.133
806.844
785.764
764.17
742.381
720.717
699.527
679.137
659.887
642.104
626.115
612.241
600.758
591.814
585.629
582.044
579.772
578.223
577.195
576.603
576.413
576.626
577.269
578.407
580.177
582.768
586.315
590.872
596.765
604.872
615.789
627.76
637.722
645.268
656.36
676.627
700.669
713.017
695.801
655.278
612.928
586.041
1067.92
1045.9
1042.98
1040.07
1037.02
1033.92
1030.8
1027.66
1024.51
1021.34
1018.18
1015.02
1011.87
1008.73
1005.61
1002.51
999.431
996.376
993.349
990.349
987.38
984.437
981.52
978.621
975.737
972.854
969.963
967.05
964.094
961.076
957.968
954.737
951.346
947.749
943.891
939.699
934.64
928.093
919.026
907.487
893.996
878.731
861.848
843.512
823.92
803.304
781.929
760.092
738.117
716.32
695.05
674.632
655.405
637.699
621.826
608.117
596.839
588.118
582.218
578.808
576.653
575.167
574.152
573.527
573.258
573.338
573.789
574.671
576.1
578.201
581.008
584.64
589.979
598.93
612.616
628.935
643.242
652.986
664.489
683.733
706.216
719.39
704.831
663.252
616.338
582.551
1069.09
1045.34
1042.4
1039.49
1036.45
1033.36
1030.26
1027.12
1023.98
1020.83
1017.69
1014.55
1011.41
1008.29
1005.19
1002.11
999.058
996.026
993.025
990.051
987.109
984.192
981.304
978.433
975.576
972.721
969.856
966.967
964.033
961.035
957.939
954.715
951.324
947.715
943.829
939.597
934.371
927.411
918.098
906.258
892.445
876.839
859.618
840.944
821.042
800.154
778.546
756.526
734.41
712.521
691.204
670.793
651.604
633.961
618.196
604.621
593.506
584.959
579.263
576.026
573.982
572.56
571.568
570.926
570.602
570.586
570.893
571.576
572.735
574.453
576.673
579.485
584.08
593.286
608.85
628.96
648.034
660.361
672.479
691.142
712.578
726.204
714.298
673.211
623.954
584.844
1069.57
1044.55
1041.61
1038.71
1035.68
1032.6
1029.5
1026.38
1023.26
1020.13
1017
1013.88
1010.77
1007.67
1004.6
1001.54
998.513
995.511
992.541
989.6
986.691
983.81
980.956
978.122
975.301
972.482
969.653
966.799
963.898
960.928
957.858
954.654
951.275
947.669
943.771
939.513
934.229
926.85
917.288
905.185
891.076
875.162
857.624
838.666
818.482
797.353
775.547
753.358
731.127
709.169
687.817
667.409
648.261
630.693
615.021
601.561
590.582
582.175
576.618
573.548
571.613
570.256
569.29
568.643
568.279
568.187
568.378
568.897
569.833
571.243
573.002
575.111
578.88
587.754
604.385
627.604
651.15
667.335
680.951
698.498
720.693
733.646
723.136
683.088
632.741
589.743
1069.44
1043.56
1040.61
1037.72
1034.69
1031.63
1028.55
1025.44
1022.34
1019.22
1016.12
1013.02
1009.93
1006.87
1003.82
1000.8
997.806
994.84
991.908
989.006
986.138
983.299
980.49
977.7
974.924
972.149
969.366
966.554
963.695
960.762
957.726
954.552
951.19
947.594
943.693
939.408
934.01
926.243
916.398
904.06
889.657
873.451
855.622
836.386
815.958
794.61
772.623
750.308
727.988
705.982
684.63
664.248
645.159
627.674
612.109
598.774
587.934
579.667
574.234
571.324
569.496
568.203
567.267
566.619
566.226
566.074
566.17
566.551
567.3
568.458
569.855
571.383
574.335
582.436
599.422
624.994
651.959
673.782
689.307
710.389
734.517
741.984
731.431
693.416
641.709
595.823
1068.76
1042.35
1039.39
1036.51
1033.5
1030.45
1027.38
1024.29
1021.21
1018.12
1015.04
1011.97
1008.92
1005.88
1002.88
999.892
996.94
994.019
991.132
988.278
985.46
982.673
979.916
977.179
974.457
971.736
969.006
966.246
963.437
960.551
957.556
954.415
951.081
947.499
943.598
939.297
933.684
925.558
915.407
902.833
888.15
871.668
853.57
834.073
813.421
791.887
769.748
747.325
724.938
702.916
681.578
661.252
642.243
624.863
609.419
596.223
585.527
577.404
572.084
569.327
567.603
566.372
565.469
564.826
564.412
564.211
564.229
564.496
565.086
566.034
567.147
568.212
570.418
577.484
594.169
621.287
651.14
675.378
695.933
725.838
749.458
751.624
739.62
702.742
650.256
602.125
1067.53
1040.93
1037.95
1035.08
1032.08
1029.05
1026
1022.93
1019.88
1016.81
1013.77
1010.73
1007.72
1004.73
1001.76
998.824
995.922
993.052
990.219
987.424
984.664
981.937
979.243
976.569
973.91
971.254
968.586
965.889
963.137
960.307
957.363
954.265
950.966
947.405
943.512
939.199
933.317
924.852
914.392
901.58
886.633
869.876
851.523
831.798
810.938
789.237
766.975
744.475
722.052
700.034
678.733
658.478
639.564
622.3
606.986
593.93
583.376
575.389
570.158
567.538
565.915
564.746
563.875
563.241
562.812
562.574
562.527
562.697
563.152
563.925
564.815
565.524
567.083
573.011
588.836
616.816
646.421
671.1
707.601
752.452
767.053
763.352
748.191
711.555
658.321
608.248
1065.83
1039.26
1036.26
1033.4
1030.42
1027.41
1024.39
1021.36
1018.33
1015.31
1012.3
1009.3
1006.34
1003.39
1000.48
997.599
994.756
991.948
989.18
986.45
983.76
981.104
978.482
975.881
973.297
970.714
968.12
965.494
962.812
960.047
957.163
954.116
950.86
947.329
943.449
939.114
932.939
924.148
913.374
900.322
885.132
868.126
849.537
829.601
808.564
786.716
764.357
741.796
719.359
697.36
676.124
655.95
637.145
620.004
604.825
591.906
581.486
573.619
568.472
565.943
564.416
563.307
562.469
561.846
561.408
561.14
561.04
561.131
561.47
562.094
562.809
563.253
564.273
569.079
583.652
609.319
640.069
676.525
734.837
775.896
785.59
776.731
757.345
719.861
665.394
613.657
1063.58
1037.33
1034.32
1031.48
1028.53
1025.55
1022.56
1019.56
1016.57
1013.59
1010.63
1007.69
1004.78
1001.89
999.04
996.225
993.451
990.714
988.022
985.369
982.759
980.186
977.646
975.13
972.631
970.133
967.624
965.078
962.476
959.785
956.969
953.983
950.775
947.282
943.42
939.033
932.543
923.457
912.362
899.068
883.646
866.405
847.6
827.47
806.274
784.311
761.878
739.278
716.853
694.898
673.737
653.666
634.98
617.971
602.929
590.143
579.848
572.089
567.014
564.53
563.092
562.042
561.238
560.628
560.185
559.893
559.75
559.773
560.015
560.511
561.087
561.344
561.934
565.67
577.607
604.853
658.148
702.462
755.672
794.448
802.637
790.306
766.627
727.409
673.486
619.104
1060.83
1035.12
1032.12
1029.31
1026.39
1023.44
1020.49
1017.54
1014.6
1011.67
1008.77
1005.89
1003.04
1000.23
997.45
994.712
992.018
989.365
986.759
984.196
981.678
979.198
976.753
974.333
971.929
969.528
967.112
964.66
962.147
959.539
956.8
953.883
950.732
947.28
943.443
938.954
932.146
922.768
911.355
897.817
882.168
864.714
845.704
825.409
804.08
782.02
759.534
736.928
714.528
692.642
671.574
651.621
633.067
616.197
601.294
588.64
578.46
570.795
565.779
563.292
561.934
560.941
560.17
559.575
559.13
558.82
558.641
558.608
558.765
559.152
559.615
559.746
559.964
562.307
575.545
623.301
677.359
722.498
770.943
807.811
816.451
802.68
775.197
734.244
681.309
625.634
1057.49
1032.64
1029.63
1026.86
1023.98
1021.09
1018.19
1015.29
1012.42
1009.55
1006.72
1003.91
1001.15
998.411
995.721
993.073
990.471
987.916
985.409
982.948
980.533
978.16
975.822
973.51
971.215
968.921
966.609
964.26
961.845
959.331
956.676
953.835
950.748
947.343
943.536
938.881
931.762
922.087
910.361
896.578
880.715
863.058
843.871
823.428
801.983
779.854
757.342
734.753
712.406
690.604
669.65
649.828
631.413
614.688
599.928
587.403
577.327
569.742
564.768
562.219
560.932
559.994
559.256
558.676
558.232
557.908
557.701
557.62
557.706
557.997
558.368
558.371
558.554
564.121
595.701
641.434
693.267
737.551
781.832
816.555
826.408
812.91
782.743
740.515
688.556
632.152
1053.62
1029.85
1026.86
1024.14
1021.32
1018.48
1015.65
1012.82
1010.02
1007.24
1004.49
1001.77
999.094
996.456
993.866
991.323
988.829
986.384
983.991
981.646
979.349
977.095
974.877
972.686
970.51
968.334
966.14
963.904
961.595
959.184
956.622
953.863
950.844
947.493
943.715
938.841
931.395
921.437
909.406
895.372
879.31
861.464
842.112
821.534
800.005
777.832
755.316
732.764
710.491
688.796
667.971
648.295
630.038
613.465
598.844
586.443
576.46
568.937
563.988
561.367
560.081
559.195
558.489
557.925
557.483
557.149
556.918
556.797
556.821
557.03
557.284
557.91
562.092
586.381
618.113
657.994
706.253
748.453
789.331
821.668
832.667
820.499
789.223
746.114
695.255
638.864
1049.15
1026.75
1023.8
1021.13
1018.38
1015.62
1012.87
1010.13
1007.42
1004.73
1002.08
999.471
996.905
994.38
991.907
989.484
987.113
984.794
982.529
980.316
978.151
976.029
973.945
971.887
969.843
967.797
965.731
963.617
961.427
959.124
956.663
953.993
951.047
947.751
944.005
938.848
931.072
920.841
908.508
894.221
877.966
859.946
840.449
819.764
798.174
775.971
753.477
730.99
708.814
687.243
666.568
647.05
628.955
612.539
598.059
585.773
575.87
568.393
563.447
560.744
559.379
558.536
557.862
557.315
556.877
556.535
556.284
556.13
556.102
556.304
557.259
561.277
582.726
608.252
637.964
673.457
717.089
756.216
794.277
824.191
835.84
825.401
794.436
750.943
701.379
645.822
1044.1
1023.34
1020.42
1017.84
1015.18
1012.51
1009.86
1007.23
1004.63
1002.05
999.525
997.036
994.597
992.204
989.865
987.579
985.35
983.173
981.053
978.985
976.967
974.994
973.056
971.144
969.245
967.34
965.412
963.431
961.367
959.18
956.827
954.25
951.381
948.14
944.431
938.915
930.809
920.299
907.683
893.146
876.695
858.516
838.897
818.124
796.489
774.295
751.845
729.442
707.386
685.966
665.448
646.103
628.179
611.924
597.585
585.409
575.574
568.124
563.159
560.364
558.893
558.017
557.371
556.841
556.407
556.059
555.792
555.611
555.699
556.506
559.809
579.331
604.27
628.765
655.084
687.369
726.262
761.989
797.501
825.009
836.827
828.034
798.23
755.05
707.107
653.012
1038.37
1019.58
1016.72
1014.24
1011.69
1009.15
1006.62
1004.11
1001.65
999.211
996.824
994.481
992.191
989.95
987.766
985.638
983.566
981.55
979.593
977.687
975.831
974.02
972.244
970.49
968.748
966.996
965.215
963.375
961.444
959.383
957.142
954.661
951.872
948.689
944.947
939.065
930.637
919.84
906.953
892.169
875.531
857.211
837.486
816.646
794.991
772.821
750.443
728.148
706.23
684.974
664.64
645.48
627.735
611.643
597.442
585.369
575.588
568.148
563.142
560.244
558.655
557.697
557.015
556.498
556.07
555.718
555.487
555.484
556.059
558.422
567.689
596.945
624.574
648.642
670.696
699.707
734.1
766.549
799.51
824.779
836.447
828.97
800.757
758.602
712.967
660.602
1031.97
1015.42
1012.66
1010.32
1007.91
1005.51
1003.14
1000.79
998.484
996.216
993.997
991.824
989.708
987.643
985.636
983.685
981.794
979.958
978.18
976.454
974.778
973.143
971.542
969.961
968.386
966.798
965.173
963.484
961.693
959.761
957.635
955.254
952.545
949.418
945.577
939.31
930.558
919.486
906.335
891.311
874.496
856.047
836.231
815.348
793.703
771.58
749.293
727.131
705.378
684.303
664.16
645.197
627.64
611.718
597.654
585.673
575.933
568.487
563.419
560.403
558.689
557.639
556.908
556.371
555.961
555.679
555.595
555.985
557.6
562.909
587.388
615.947
641.996
666.313
685.216
710.906
741.004
770.187
800.792
824.191
835.187
828.618
802.282
761.755
718.739
668.727
1024.75
1010.85
1008.23
1006.06
1003.83
1001.62
999.435
997.276
995.165
993.092
991.072
989.098
987.183
985.319
983.513
981.764
980.074
978.438
976.858
975.329
973.847
972.404
970.991
969.595
968.198
966.782
965.324
963.79
962.145
960.346
958.338
956.056
953.425
950.352
946.328
939.682
930.596
919.256
905.847
890.593
873.61
855.044
835.158
814.256
792.635
770.588
748.42
726.416
704.84
683.969
664.038
645.282
627.92
612.165
598.236
586.342
576.633
569.164
564.014
560.867
559.021
557.871
557.09
556.539
556.172
556.024
556.245
557.343
560.608
571.058
604.794
635.297
657.992
681.726
698.652
721.223
747.341
772.965
802.05
823.681
833.348
827.265
802.856
764.385
724.336
677.265
1016.85
1005.91
1003.48
1001.52
999.516
997.525
995.566
993.635
991.752
989.907
988.114
986.368
984.68
983.042
981.461
979.935
978.465
977.048
975.684
974.367
973.094
971.855
970.641
969.438
968.229
966.993
965.705
964.332
962.835
961.17
959.279
957.097
954.539
951.512
947.209
940.187
930.772
919.162
905.514
890.041
872.896
854.229
834.3
813.394
791.825
769.881
747.85
726.021
704.649
683.997
664.292
645.754
628.592
613.012
599.214
587.402
577.711
570.205
564.956
561.665
559.68
558.429
557.602
557.062
556.783
556.861
557.564
559.643
565.208
584.945
619.484
651.874
672.794
695.504
710.895
731.302
753.495
775.172
803.148
823.704
831.324
824.82
802.464
766.501
729.628
686.274
1008.49
1000.75
998.553
996.852
995.108
993.375
991.676
990.003
988.376
986.787
985.247
983.753
982.314
980.921
979.582
978.297
977.063
975.878
974.741
973.647
972.592
971.566
970.558
969.554
968.536
967.482
966.365
965.153
963.802
962.268
960.49
958.399
955.908
952.92
948.238
940.836
931.11
919.23
905.347
889.675
872.376
853.623
833.664
812.78
791.287
769.468
747.603
725.975
704.828
684.412
664.941
646.633
629.682
614.278
600.609
588.871
579.189
571.632
566.27
562.824
560.696
559.347
558.48
557.981
557.85
558.237
559.55
562.847
571.318
602.534
632.748
665.882
686.03
707.916
721.945
741.405
759.907
777.068
803.111
824.45
830.115
821.914
801.523
768.601
734.718
695.239
1000.14
995.659
993.737
992.318
990.859
989.408
987.989
986.594
985.243
983.925
982.654
981.423
980.244
979.109
978.023
976.983
975.992
975.044
974.139
973.271
972.435
971.622
970.82
970.013
969.183
968.308
967.358
966.299
965.089
963.677
962.001
959.988
957.553
954.57
949.429
941.65
931.607
919.464
905.358
889.496
872.065
853.239
833.272
812.437
791.044
769.373
747.697
726.287
705.385
685.224
666.008
647.941
631.204
615.978
602.44
590.77
581.091
573.471
567.982
564.373
562.097
560.652
559.76
559.317
559.371
560.132
562.144
566.802
578.509
617.1
644.66
677.908
697.317
719.61
732.142
750.187
766.862
780.178
802.239
824.199
830.086
820.31
800.309
770.286
738.345
703.881
992.278
990.984
989.366
988.24
987.074
985.913
984.781
983.668
982.594
981.551
980.549
979.583
978.663
977.782
976.945
976.149
975.395
974.679
974
973.352
972.728
972.119
971.513
970.893
970.241
969.532
968.738
967.819
966.734
965.429
963.84
961.891
959.49
956.398
950.786
942.633
932.274
919.874
905.556
889.521
871.971
853.093
833.14
812.377
791.107
769.61
748.148
726.983
706.347
686.455
667.507
649.693
633.179
618.134
604.724
593.12
583.436
575.744
570.116
566.336
563.908
562.366
561.458
561.093
561.351
562.509
565.236
571.21
585.92
628.516
654.677
688.305
706.735
730.079
741.848
756.883
773.067
784.647
802.698
823.647
830.072
819.35
799.045
771.399
740.381
711.388
985.382
987.08
985.77
984.93
984.05
983.169
982.312
981.471
980.664
979.882
979.136
978.421
977.748
977.107
976.504
975.937
975.405
974.906
974.436
973.99
973.562
973.14
972.712
972.262
971.768
971.208
970.548
969.75
968.769
967.55
966.024
964.116
961.728
958.398
952.309
943.783
933.121
920.469
905.948
889.759
872.106
853.193
833.278
812.613
791.493
770.196
748.974
728.075
707.721
688.12
669.454
651.9
635.618
620.76
607.482
595.941
586.247
578.475
572.697
568.736
566.149
564.506
563.575
563.292
563.756
565.289
568.643
575.663
592.414
637.003
662.43
697.325
714.936
737.028
751.5
763.414
776.837
787.236
803.598
823.451
830.159
819.155
798.103
771.346
737.892
711.573
979.808
984.197
983.197
982.622
982.005
981.383
980.78
980.187
979.623
979.078
978.566
978.078
977.626
977.201
976.809
976.447
976.114
975.806
975.523
975.255
974.998
974.738
974.466
974.16
973.801
973.363
972.813
972.11
971.208
970.047
968.561
966.665
964.264
960.557
953.998
945.104
934.141
921.244
906.535
890.207
872.476
853.555
833.7
813.157
792.215
771.144
750.184
729.575
709.526
690.235
671.865
654.585
638.544
623.878
610.732
599.253
589.546
581.685
575.749
571.595
568.835
567.079
566.111
565.881
566.51
568.338
572.133
579.749
597.043
642.263
668.007
701.726
721.967
740.787
757.738
770.131
781.024
789.279
804.07
822.045
829.393
819.173
797.29
768.993
731.544
706.224
975.661
982.479
981.767
981.431
981.047
980.652
980.272
979.897
979.546
979.21
978.9
978.611
978.351
978.113
977.903
977.716
977.554
977.41
977.284
977.167
977.053
976.929
976.783
976.595
976.343
976
975.531
974.896
974.044
972.915
971.438
969.527
967.088
962.861
955.844
946.591
935.335
922.206
907.319
890.877
873.092
854.188
834.416
814.028
793.294
772.475
751.802
731.51
711.786
692.816
674.759
657.767
641.974
627.506
614.495
603.079
593.355
585.4
579.294
574.933
571.98
570.086
569.046
568.82
569.526
571.504
575.483
583.14
599.444
643.126
671.181
700.538
726.351
744.421
759.332
772.86
783.191
789.734
802.304
818.767
828.193
819.734
795.858
764.57
715.917
689.901
972.983
981.914
981.476
981.348
981.165
980.966
980.776
980.588
980.418
980.258
980.12
979.997
979.9
979.819
979.761
979.721
979.699
979.691
979.694
979.7
979.7
979.684
979.637
979.538
979.366
979.09
978.675
978.079
977.249
976.124
974.628
972.675
970.146
965.294
957.828
948.23
936.696
923.349
908.31
891.781
873.966
855.108
835.452
815.247
794.744
774.205
753.847
733.888
714.512
695.887
678.156
661.462
645.925
631.662
618.792
607.437
597.695
589.639
583.351
578.762
575.588
573.516
572.352
572.057
572.733
574.679
578.524
585.654
599.844
634.746
670.073
696.765
722.34
743.018
759.896
772.968
780.951
785.57
795.889
811.228
822.249
816.032
792.089
754.284
700.827
676.698
971.609
982.418
982.229
982.279
982.266
982.231
982.202
982.169
982.151
982.138
982.143
982.158
982.194
982.243
982.309
982.388
982.48
982.581
982.687
982.789
982.879
982.944
982.97
982.935
982.816
982.582
982.196
981.613
980.78
979.632
978.092
976.073
973.297
967.829
959.939
950.011
938.215
924.672
909.505
892.917
875.108
856.331
836.817
816.822
796.585
776.355
756.338
736.738
717.724
699.459
682.07
665.686
650.417
636.364
623.636
612.344
602.58
594.416
587.931
583.088
579.657
577.354
575.997
575.537
576.048
577.762
581.167
587.313
598.804
624.332
657.975
689.466
712.841
732.815
750.615
764.29
773.499
777.908
785.626
798.461
810.662
807.568
780.629
736.515
686.049
665.298
971.398
983.852
983.885
984.087
984.217
984.32
984.424
984.52
984.626
984.734
984.856
984.985
985.129
985.282
985.449
985.624
985.807
985.993
986.178
986.353
986.51
986.635
986.711
986.718
986.629
986.414
986.034
985.442
984.582
983.389
981.782
979.672
976.481
970.442
962.154
951.916
939.89
926.176
910.909
894.292
876.527
857.86
838.527
818.775
798.833
778.937
759.283
740.066
721.44
703.551
686.517
670.453
655.459
641.624
629.042
617.813
608.023
599.74
593.041
587.915
584.18
581.583
579.948
579.207
579.402
580.688
583.408
588.261
596.902
614.48
639.082
667.452
696.905
717.307
733.326
746.088
755.027
758.688
763.671
772.859
783.893
783.577
758.523
706.462
670.402
654.59
972.165
986.073
986.3
986.631
986.88
987.097
987.311
987.512
987.721
987.928
988.145
988.365
988.598
988.835
989.082
989.332
989.585
989.837
990.082
990.311
990.515
990.679
990.786
990.815
990.737
990.521
990.126
989.505
988.599
987.341
985.649
983.437
979.658
973.106
964.447
953.935
941.701
927.847
912.519
895.912
878.224
859.707
840.588
821.113
801.496
781.965
762.702
743.887
725.663
708.166
691.5
675.768
661.057
647.444
635.011
623.844
614.024
605.612
598.68
593.236
589.143
586.18
584.171
583.03
582.76
583.444
585.286
588.696
594.643
606.021
622.219
641.801
663.483
681.918
699.523
716.585
725.393
727.418
727.018
726.577
735.815
743.108
715.105
676.733
654.076
643.882
973.781
988.941
989.344
989.787
990.134
990.444
990.747
991.035
991.327
991.613
991.907
992.2
992.502
992.805
993.114
993.422
993.729
994.029
994.317
994.583
994.816
995.003
995.123
995.157
995.073
994.839
994.412
993.744
992.775
991.435
989.642
987.344
982.809
975.791
966.8
956.045
943.637
929.681
914.324
897.766
880.197
861.871
843.006
823.839
804.582
785.44
766.591
748.197
730.397
713.307
697.023
681.632
667.209
653.824
641.542
630.436
620.578
612.024
604.838
599.039
594.531
591.121
588.638
586.979
586.107
586.044
586.88
588.827
592.388
599.114
608.835
620.853
634.412
646.493
657.982
669.024
674.873
675.621
674.156
672.7
677.857
684.195
670.489
649.532
637.65
632.893
976.127
992.351
992.908
993.446
993.874
994.258
994.633
994.99
995.347
995.696
996.05
996.4
996.755
997.109
997.464
997.815
998.161
998.494
998.81
999.097
999.346
999.539
999.659
999.681
999.576
999.308
998.834
998.105
997.057
995.621
993.711
991.124
985.907
978.47
969.19
958.228
945.686
931.667
916.325
899.858
882.452
864.355
845.78
826.956
808.086
789.36
770.95
753.002
735.641
718.971
703.08
688.038
673.911
660.756
648.626
637.578
627.674
618.964
611.503
605.313
600.328
596.39
593.337
591.05
589.46
588.543
588.311
588.846
590.377
593.686
598.752
605.23
612.686
619.448
625.847
632.063
635.224
635.171
633.882
632.624
635.407
640.157
635.027
626.076
621.871
621.692
979.091
996.222
996.893
997.513
998.006
998.449
998.88
999.289
999.698
1000.09
1000.49
1000.89
1001.28
1001.67
1002.06
1002.44
1002.81
1003.16
1003.49
1003.79
1004.04
1004.23
1004.33
1004.33
1004.19
1003.87
1003.34
1002.53
1001.39
999.848
997.811
994.725
988.929
981.128
971.598
960.469
947.834
933.795
918.514
902.179
884.978
867.151
848.906
830.459
812.008
793.726
775.776
758.29
741.385
725.15
709.66
694.975
681.149
668.227
656.248
645.254
635.298
626.418
618.658
612.042
606.528
601.988
598.273
595.26
592.862
591.025
589.71
588.924
588.759
589.585
591.413
594.095
597.394
600.41
603.335
606.324
607.54
607.028
606.167
605.405
607.012
610.346
609.306
606.898
607.468
610.596
982.541
1000.44
1001.21
1001.9
1002.44
1002.93
1003.4
1003.85
1004.3
1004.73
1005.16
1005.59
1006.01
1006.42
1006.83
1007.23
1007.61
1007.98
1008.31
1008.6
1008.84
1009.01
1009.09
1009.05
1008.86
1008.48
1007.87
1006.98
1005.74
1004.07
1001.94
998.14
991.86
983.746
974.006
962.755
950.07
936.055
920.877
904.723
887.77
870.255
852.379
834.343
816.337
798.526
781.058
764.053
747.618
731.827
716.748
702.429
688.909
676.221
664.392
653.45
643.433
634.368
626.289
619.216
613.127
607.918
603.463
599.646
596.372
593.573
591.193
589.206
587.633
586.649
586.256
586.438
587.062
587.679
588.441
589.436
589.477
588.712
588.146
587.946
588.905
591.015
591.401
592.02
595.013
600.069
986.404
1004.95
1005.77
1006.52
1007.1
1007.62
1008.13
1008.61
1009.08
1009.53
1009.99
1010.43
1010.87
1011.3
1011.72
1012.13
1012.51
1012.87
1013.19
1013.47
1013.69
1013.83
1013.87
1013.78
1013.53
1013.08
1012.39
1011.4
1010.04
1008.25
1005.95
1001.37
994.68
986.305
976.405
965.073
952.381
938.44
923.415
907.483
890.822
873.662
856.188
838.598
821.069
803.751
786.786
770.279
754.326
738.994
724.334
710.386
697.175
684.721
673.04
662.147
652.061
642.8
634.386
626.832
620.13
614.2
608.945
604.262
600.063
596.284
592.875
589.801
587.058
584.732
582.825
581.389
580.355
579.547
579.034
578.951
578.339
577.41
577.144
577.125
577.628
578.811
579.431
581.087
584.859
590.458
990.545
1009.65
1010.49
1011.3
1011.91
1012.45
1012.98
1013.48
1013.96
1014.44
1014.91
1015.36
1015.81
1016.24
1016.66
1017.07
1017.45
1017.79
1018.1
1018.35
1018.54
1018.64
1018.63
1018.48
1018.17
1017.64
1016.85
1015.75
1014.28
1012.35
1009.61
1004.41
997.381
988.802
978.786
967.418
954.764
940.943
926.116
910.453
894.128
877.362
860.328
843.214
826.189
809.389
792.945
776.955
761.497
746.632
732.398
718.826
705.928
693.711
682.178
671.33
661.17
651.704
642.942
634.895
627.554
620.868
614.769
609.18
604.03
599.27
594.868
590.797
587.06
583.708
580.754
578.271
576.232
574.621
573.44
572.82
571.854
570.948
570.703
570.664
570.827
571.352
571.766
573.477
576.997
583.193
994.885
1014.48
1015.31
1016.16
1016.8
1017.36
1017.9
1018.4
1018.9
1019.38
1019.86
1020.31
1020.76
1021.19
1021.61
1022
1022.37
1022.7
1022.98
1023.2
1023.35
1023.4
1023.33
1023.12
1022.72
1022.11
1021.22
1020.01
1018.41
1016.39
1012.95
1007.27
999.961
991.226
981.144
969.78
957.212
943.559
928.977
913.627
897.681
881.344
864.789
848.181
831.687
815.428
799.522
784.062
769.112
754.724
740.926
727.734
715.153
703.177
691.793
680.989
670.754
661.079
651.967
643.417
635.428
627.97
621.006
614.487
608.373
602.636
597.269
592.269
587.66
583.482
579.764
576.583
573.942
571.881
570.403
569.493
568.502
567.673
567.374
567.251
567.183
567.292
567.458
568.922
571.939
999.348
1019.38
1020.16
1021.06
1021.71
1022.28
1022.82
1023.34
1023.84
1024.32
1024.79
1025.25
1025.69
1026.12
1026.52
1026.9
1027.24
1027.54
1027.79
1027.98
1028.08
1028.07
1027.94
1027.65
1027.17
1026.46
1025.46
1024.13
1022.4
1020.23
1016
1009.94
1002.42
993.579
983.472
972.162
959.726
946.286
931.993
917
901.472
885.604
869.557
853.487
837.546
821.85
806.502
791.587
777.158
763.255
749.9
737.096
724.838
713.106
701.875
691.117
680.81
670.931
661.473
652.424
643.792
635.568
627.733
620.278
613.195
606.488
600.18
594.298
588.885
583.989
579.655
575.966
572.945
570.615
569.01
568.019
567.057
1003.85
1024.3
1025
1025.94
1026.6
1027.18
1027.72
1028.23
1028.74
1029.21
1029.68
1030.13
1030.56
1030.98
1031.36
1031.72
1032.04
1032.3
1032.52
1032.65
1032.7
1032.63
1032.43
1032.06
1031.49
1030.67
1029.56
1028.11
1026.25
1023.6
1018.8
1012.45
1004.77
995.861
985.774
974.562
962.303
949.12
935.159
920.564
905.493
890.128
874.623
859.117
843.755
828.643
813.869
799.513
785.618
772.21
759.308
746.902
734.973
723.492
712.421
701.717
691.349
681.277
671.486
661.957
652.701
643.725
635.037
626.656
618.612
610.945
603.708
596.963
590.773
585.199
580.31
576.182
572.86
570.347
568.665
567.689
566.742
1008.34
1029.21
1029.78
1030.76
1031.44
1032.01
1032.56
1033.07
1033.56
1034.03
1034.49
1034.93
1035.35
1035.74
1036.11
1036.44
1036.72
1036.95
1037.12
1037.21
1037.19
1037.06
1036.78
1036.32
1035.65
1034.73
1033.5
1031.92
1029.98
1026.6
1021.37
1014.79
1007.01
998.077
988.053
976.982
964.944
952.06
938.472
924.315
909.737
894.907
879.972
865.06
850.297
835.788
821.608
807.824
794.477
781.58
769.141
757.144
745.556
734.338
723.441
712.807
702.392
692.147
682.045
672.064
662.216
652.52
643.009
633.731
624.744
616.127
607.966
600.353
593.375
587.119
581.671
577.1
573.458
570.751
568.995
568.021
567.081
1012.76
1034.09
1034.49
1035.5
1036.19
1036.77
1037.31
1037.81
1038.3
1038.76
1039.2
1039.62
1040.03
1040.4
1040.74
1041.04
1041.29
1041.48
1041.59
1041.62
1041.54
1041.34
1040.97
1040.42
1039.65
1038.61
1037.27
1035.56
1033.36
1029.28
1023.73
1016.99
1009.15
1000.24
990.315
979.426
967.648
955.104
941.927
928.242
914.19
899.927
885.589
871.294
857.155
843.268
829.702
816.509
803.723
791.354
779.393
767.819
756.588
745.649
734.943
724.404
713.969
703.579
693.2
682.807
672.412
662.042
651.751
641.61
631.708
622.154
613.069
604.57
596.772
589.792
583.733
578.669
574.643
571.646
569.736
568.724
567.795
1017.09
1038.91
1039.09
1040.14
1040.85
1041.42
1041.95
1042.44
1042.92
1043.37
1043.8
1044.2
1044.58
1044.93
1045.24
1045.5
1045.72
1045.86
1045.92
1045.89
1045.74
1045.45
1045
1044.36
1043.48
1042.32
1040.86
1039.06
1036.25
1031.7
1025.92
1019.07
1011.21
1002.35
992.568
981.897
970.418
958.249
945.516
932.338
918.842
905.174
891.461
877.805
864.313
851.069
838.136
825.553
813.346
801.522
790.06
778.927
768.076
757.444
746.955
736.542
726.121
715.625
705.016
694.267
683.379
672.388
661.367
650.407
639.622
629.149
619.134
609.725
601.063
593.294
586.543
580.896
576.39
572.997
570.799
569.63
568.692
1021.27
1043.66
1043.57
1044.67
1045.38
1045.95
1046.48
1046.96
1047.42
1047.86
1048.27
1048.66
1049.01
1049.33
1049.61
1049.84
1050
1050.09
1050.1
1050
1049.78
1049.41
1048.87
1048.12
1047.13
1045.86
1044.26
1042.32
1038.79
1033.9
1027.96
1021.04
1013.19
1004.43
994.818
984.401
973.254
961.493
949.233
936.591
923.681
910.632
897.566
884.576
871.753
859.173
846.892
834.941
823.335
812.078
801.14
790.479
780.036
769.745
759.517
749.265
738.904
728.364
717.581
706.532
695.216
683.67
671.979
660.247
648.612
637.234
626.285
615.936
606.36
597.727
590.186
583.84
578.735
574.843
572.209
570.67
569.761
1025.33
1048.35
1047.94
1049.07
1049.8
1050.37
1050.88
1051.35
1051.8
1052.22
1052.62
1052.98
1053.31
1053.6
1053.84
1054.02
1054.14
1054.18
1054.13
1053.96
1053.66
1053.2
1052.56
1051.71
1050.61
1049.22
1047.54
1045.08
1041.05
1035.92
1029.86
1022.92
1015.11
1006.48
997.072
986.938
976.154
964.829
953.072
940.989
928.687
916.282
903.884
891.582
879.451
867.557
855.951
844.657
833.683
823.019
812.635
802.484
792.491
782.578
772.658
762.633
752.396
741.873
730.992
719.714
708.045
696.018
683.72
671.268
658.816
646.548
634.655
623.335
612.791
603.215
594.778
587.605
581.763
577.245
574.052
571.961
1029.21
1052.98
1052.17
1053.34
1054.1
1054.66
1055.17
1055.62
1056.06
1056.46
1056.83
1057.17
1057.47
1057.73
1057.93
1058.07
1058.14
1058.12
1058
1057.76
1057.38
1056.83
1056.09
1055.13
1053.92
1052.41
1050.62
1047.46
1043.09
1037.8
1031.66
1024.72
1016.99
1008.52
999.337
989.513
979.116
968.25
957.017
945.517
933.844
922.103
910.393
898.798
887.381
876.198
865.291
854.681
844.372
834.339
824.547
814.945
805.458
795.986
786.438
776.702
766.674
756.252
745.359
733.951
722.013
709.586
696.747
683.625
670.394
657.246
644.396
632.074
620.5
609.898
600.457
592.324
585.595
580.298
576.421
573.657
1032.93
1057.54
1056.28
1057.49
1058.27
1058.83
1059.33
1059.77
1060.19
1060.57
1060.92
1061.23
1061.5