/*--------------------------------*- C++ -*----------------------------------*\
  =========                 |
  \\      /  F ield         | OpenFOAM: The Open Source CFD Toolbox
   \\    /   O peration     | Website:  https://openfoam.org
    \\  /    A nd           | Version:  9
     \\/     M anipulation  |
\*---------------------------------------------------------------------------*/
FoamFile
{
    format      ascii;
    class       volVectorField;
    location    "2250";
    object      U;
}
// * * * * * * * * * * * * * * * * * * * * * * * * * * * * * * * * * * * * * //

dimensions      [0 1 -1 0 0 0 0];

internalField   nonuniform List<vector> 
13617
(
(1.15179 -8.99617e-06 -1.1709e-20)
(1.15179 2.12747e-05 1.23313e-20)
(1.15177 5.84492e-05 1.00243e-25)
(1.15175 0.000100108 -1.06267e-25)
(1.15171 0.000147939 -1.47793e-20)
(1.15168 0.000196514 1.18424e-25)
(1.15164 0.000249745 -1.25539e-25)
(1.1516 0.000303896 8.5758e-21)
(1.15156 0.000361613 -8.96159e-21)
(1.15152 0.000420646 -9.29255e-21)
(1.15148 0.000482562 -9.58818e-21)
(1.15144 0.00054602 -9.79399e-21)
(1.1514 0.000611985 5.00146e-21)
(1.15136 0.000679556 -5.05015e-21)
(1.15132 0.000749374 -5.02651e-21)
(1.15128 0.000820761 -4.97427e-21)
(1.15125 0.000894101 -4.85867e-21)
(1.15122 0.000968875 -3.00751e-25)
(1.15119 0.00104524 0)
(1.15117 0.00112272 -3.02369e-23)
(1.15114 0.00120129 -1.77993e-21)
(1.15113 0.00128044 0)
(1.15112 0.00135995 0)
(1.15112 0.00143923 6.26267e-22)
(1.15113 0.00151787 -9.2179e-26)
(1.15114 0.00159511 2.46549e-25)
(1.15117 0.0016703 -7.29143e-25)
(1.15121 0.00174259 -1.26179e-21)
(1.15126 0.00181102 0)
(1.15133 0.00187453 0)
(1.15141 0.00193195 1.71982e-21)
(1.15152 0.00198195 -2.2445e-21)
(1.15165 0.0020231 6.1879e-24)
(1.1518 0.0020538 -3.64622e-21)
(1.15199 0.00207234 -8.18782e-24)
(1.1522 0.00207676 5.54644e-21)
(1.15246 0.00206496 3.36773e-21)
(1.15275 0.00203456 0)
(1.15308 0.00198295 -4.95634e-21)
(1.15346 0.00190712 0)
(1.15389 0.00180368 0)
(1.15438 0.00166878 0)
(1.15492 0.00149799 4.92719e-21)
(1.15553 0.00128627 1.85538e-22)
(1.1562 0.00102793 -1.03467e-22)
(1.15694 0.000716459 0)
(1.15775 0.00034469 -1.57653e-22)
(1.15863 -9.53926e-05 -1.10653e-20)
(1.15959 -0.000612553 0)
(1.16062 -0.00121625 7.48407e-21)
(1.16173 -0.00191646 -8.65811e-21)
(1.1629 -0.00272403 0)
(1.16415 -0.00364983 0)
(1.16547 -0.00470586 -1.35695e-20)
(1.16684 -0.00590384 -7.56144e-21)
(1.16826 -0.00725634 -2.97331e-22)
(1.16972 -0.00877735 -9.85487e-21)
(1.17121 -0.0104807 4.69206e-22)
(1.1727 -0.0123828 -1.44502e-20)
(1.17419 -0.0145013 -2.78732e-20)
(1.17564 -0.0168567 0)
(1.17703 -0.0194737 1.1785e-20)
(1.17832 -0.0223813 -5.45344e-21)
(1.17947 -0.0256129 6.18924e-21)
(1.18044 -0.0292098 1.1117e-20)
(1.18117 -0.0332189 1.24447e-21)
(1.18157 -0.0376974 1.33524e-20)
(1.18157 -0.0427092 4.24823e-22)
(1.18104 -0.0483228 -5.61497e-21)
(1.17986 -0.0546189 -1.38382e-21)
(1.17785 -0.0616725 -7.9147e-21)
(1.17481 -0.0695631 -9.97932e-21)
(1.17045 -0.078361 0)
(1.16452 -0.0881025 -1.16656e-20)
(1.15687 -0.0987718 1.22037e-20)
(1.14728 -0.110301 -1.66437e-21)
(1.13448 -0.12271 -4.12482e-21)
(1.1157 -0.136263 5.5544e-20)
(1.09018 -0.150872 0)
(1.06528 -0.164472 1.10704e-20)
(1.05396 -0.172538 2.73372e-20)
(1.05667 -0.172006 -2.83607e-20)
(1.04868 -0.167008 -1.53366e-20)
(1.00053 -0.165774 4.80611e-20)
(0.907271 -0.174347 -3.58918e-20)
(0.785509 -0.193413 3.90769e-20)
(1.15179 -8.83423e-06 -1.17096e-20)
(1.15179 2.16013e-05 1.22919e-20)
(1.15177 5.91016e-05 -1.31125e-20)
(1.15175 0.000101036 2.12148e-25)
(1.15172 0.00014918 -2.5666e-28)
(1.15168 0.000198068 -1.55334e-20)
(1.15164 0.000251637 8.17549e-21)
(1.1516 0.00030615 -8.57277e-21)
(1.15156 0.000364215 1.37379e-25)
(1.15152 0.000423612 0)
(1.15148 0.00048593 9.52916e-21)
(1.15144 0.000549782 1.95458e-20)
(1.1514 0.000616169 -3.09593e-25)
(1.15136 0.00068418 5.00012e-21)
(1.15132 0.000754439 3.03923e-23)
(1.15129 0.00082631 4.97264e-21)
(1.15125 0.000900135 4.85832e-21)
(1.15122 0.000975419 0)
(1.15119 0.00105231 0)
(1.15117 0.00113035 -4.00254e-21)
(1.15115 0.00120948 3.52124e-21)
(1.15113 0.00128926 -4.03946e-25)
(1.15112 0.00136938 1.9802e-25)
(1.15112 0.00144932 -5.59299e-23)
(1.15113 0.0015286 5.9026e-24)
(1.15115 0.00160652 -2.63315e-25)
(1.15117 0.00168239 -2.07209e-25)
(1.15121 0.00175533 1.26295e-21)
(1.15126 0.00182439 -1.07676e-24)
(1.15133 0.00188848 2.66644e-21)
(1.15142 0.00194637 0)
(1.15152 0.00199675 0)
(1.15165 0.00203809 -2.93716e-21)
(1.15181 0.00206878 3.64745e-21)
(1.15199 0.00208701 -4.54516e-21)
(1.1522 0.00209079 0)
(1.15245 0.00207793 3.40411e-21)
(1.15274 0.002046 0)
(1.15307 0.00199224 9.915e-21)
(1.15345 0.0019136 0)
(1.15388 0.00180659 0)
(1.15436 0.00166727 -6.97489e-23)
(1.15489 0.00149111 7.38266e-23)
(1.15549 0.00127304 0)
(1.15615 0.00100729 -6.87064e-21)
(1.15688 0.000687283 -8.04574e-21)
(1.15767 0.000305898 -1.55619e-22)
(1.15854 -0.00014489 1.64543e-22)
(1.15947 -0.000673672 2.10173e-22)
(1.16048 -0.00128986 -7.72321e-21)
(1.16155 -0.00200321 8.68016e-21)
(1.1627 -0.00282433 0)
(1.1639 -0.00376372 0)
(1.16517 -0.00483262 -4.25178e-22)
(1.16649 -0.00604258 8.03945e-21)
(1.16784 -0.00740533 -1.44055e-21)
(1.16923 -0.00893337 1.58311e-21)
(1.17064 -0.0106399 1.12773e-20)
(1.17205 -0.0125395 1.28234e-20)
(1.17343 -0.0146479 1.64014e-20)
(1.17477 -0.0169835 7.92125e-21)
(1.17602 -0.019567 -1.79659e-20)
(1.17717 -0.0224237 -5.13332e-21)
(1.17816 -0.0255814 5.79884e-21)
(1.17895 -0.0290755 -3.155e-21)
(1.17947 -0.0329438 1.3224e-21)
(1.17964 -0.0372308 -8.05928e-22)
(1.17939 -0.0419871 -4.90352e-21)
(1.17859 -0.0472643 5.13949e-21)
(1.17712 -0.0531192 -6.50927e-21)
(1.17481 -0.0596038 -9.05697e-22)
(1.17148 -0.0667679 7.43559e-21)
(1.16689 -0.0746444 -9.0785e-21)
(1.16079 -0.0832357 9.51103e-21)
(1.15309 -0.0924883 0)
(1.1437 -0.102347 -2.17807e-21)
(1.13153 -0.11287 -1.54296e-20)
(1.114 -0.124164 -1.75374e-20)
(1.09005 -0.135798 1.87512e-20)
(1.06635 -0.145842 -3.12123e-20)
(1.05632 -0.150959 0)
(1.06391 -0.148606 0)
(1.06744 -0.141781 -1.47951e-20)
(1.03206 -0.13958 4.71037e-20)
(0.944231 -0.148662 -5.21937e-20)
(0.820418 -0.171245 -3.93586e-20)
(1.15179 -8.95322e-06 1.1711e-20)
(1.15179 2.19177e-05 -1.22922e-20)
(1.15177 5.97596e-05 2.62068e-20)
(1.15175 0.000101976 -4.18031e-30)
(1.15172 0.000150444 2.24306e-25)
(1.15168 0.000199657 1.55352e-20)
(1.15164 0.000253568 -1.63397e-20)
(1.15161 0.000308417 8.53967e-21)
(1.15157 0.000366866 -2.68764e-25)
(1.15152 0.000426639 9.2201e-21)
(1.15148 0.000489343 -9.52965e-21)
(1.15144 0.000553617 -3.66485e-23)
(1.1514 0.000620416 2.94365e-25)
(1.15136 0.000688872 -2.70211e-23)
(1.15133 0.000759577 4.99595e-21)
(1.15129 0.000831921 0)
(1.15126 0.000906241 4.77054e-21)
(1.15122 0.000982033 -4.56901e-21)
(1.1512 0.00105944 -2.14173e-21)
(1.15117 0.00113804 1.98502e-21)
(1.15115 0.00121774 -4.01956e-23)
(1.15114 0.00129809 1.38708e-21)
(1.15113 0.00137883 0)
(1.15113 0.00145938 -5.72214e-23)
(1.15113 0.0015393 -5.73064e-24)
(1.15115 0.00161786 -3.81162e-25)
(1.15118 0.00169437 2.97636e-25)
(1.15121 0.00176793 0)
(1.15127 0.00183757 2.19816e-24)
(1.15133 0.00190218 -2.66808e-21)
(1.15142 0.00196053 0)
(1.15153 0.00201122 2.331e-21)
(1.15165 0.00205272 2.93164e-21)
(1.15181 0.00208336 -3.71e-21)
(1.15199 0.00210127 4.56296e-21)
(1.1522 0.00210442 0)
(1.15245 0.00209051 -3.40556e-21)
(1.15274 0.00205706 0)
(1.15306 0.00200124 -4.95851e-21)
(1.15344 0.00191991 0)
(1.15386 0.0018095 0)
(1.15433 0.00166597 6.93525e-23)
(1.15486 0.0014848 8.39481e-24)
(1.15545 0.00126076 9.59156e-24)
(1.1561 0.000988119 1.34713e-20)
(1.15681 0.000660325 2.14743e-22)
(1.15759 0.000270157 9.27493e-21)
(1.15843 -0.000190264 -1.05975e-20)
(1.15935 -0.000729413 -1.88314e-22)
(1.16032 -0.00135654 6.96959e-21)
(1.16137 -0.00208117 2.51654e-22)
(1.16247 -0.0029134 0)
(1.16364 -0.00386373 0)
(1.16485 -0.00494242 1.24541e-20)
(1.16611 -0.00616043 -4.6901e-22)
(1.16741 -0.00752872 -1.69963e-20)
(1.16873 -0.009059 9.43864e-21)
(1.17005 -0.0107629 -1.03989e-20)
(1.17137 -0.0126531 -1.01801e-20)
(1.17265 -0.0147439 -1.74183e-21)
(1.17388 -0.0170508 1.36167e-21)
(1.17501 -0.0195909 6.61776e-21)
(1.17602 -0.0223864 -1.59406e-22)
(1.17686 -0.0254591 2.6072e-21)
(1.17748 -0.0288367 0)
(1.17781 -0.0325504 2.71743e-20)
(1.17778 -0.0366329 -8.01964e-21)
(1.17731 -0.0411238 0)
(1.17628 -0.046057 0)
(1.17458 -0.0514724 0)
(1.17205 -0.0574016 -1.29548e-20)
(1.16852 -0.0638688 0)
(1.16378 -0.070887 7.84206e-21)
(1.15761 -0.0784342 -1.59729e-20)
(1.14996 -0.0864421 1.84197e-20)
(1.1408 -0.0948334 -3.29658e-20)
(1.1293 -0.103632 -6.74396e-22)
(1.113 -0.112878 1.28405e-20)
(1.09048 -0.122172 1.29807e-20)
(1.06756 -0.130169 0)
(1.05804 -0.134786 1.88907e-20)
(1.0693 -0.133905 -1.94585e-20)
(1.08348 -0.127386 0)
(1.0608 -0.123637 1.09439e-20)
(0.977797 -0.130491 4.70763e-20)
(0.845155 -0.154094 -7.35246e-20)
(1.15179 -9.15861e-06 8.86409e-26)
(1.15179 2.2235e-05 -1.87843e-25)
(1.15177 6.04098e-05 -1.82209e-23)
(1.15175 0.000102899 0)
(1.15172 0.000151681 1.46944e-20)
(1.15168 0.000201216 -1.5488e-20)
(1.15165 0.000255446 8.16345e-21)
(1.15161 0.000310662 -8.54017e-21)
(1.15157 0.000369447 8.88165e-21)
(1.15153 0.000429593 -9.22089e-21)
(1.15148 0.000492693 1.42107e-25)
(1.15144 0.000557347 -3.69653e-23)
(1.1514 0.000624577 2.92925e-25)
(1.15137 0.000693459 -2.73078e-23)
(1.15133 0.000764626 3.11199e-25)
(1.15129 0.000837419 4.86116e-21)
(1.15126 0.000912215 -4.43452e-23)
(1.15123 0.00098851 4.56931e-21)
(1.1512 0.00106645 2.95058e-23)
(1.15117 0.00114557 9.38271e-25)
(1.15116 0.00122583 -3.96095e-23)
(1.15114 0.00130675 -1.38756e-21)
(1.15113 0.00138807 0)
(1.15113 0.00146923 -5.13405e-22)
(1.15114 0.00154975 1.10679e-25)
(1.15115 0.00162893 -1.17308e-25)
(1.15118 0.00170603 8.66258e-22)
(1.15122 0.00178018 -1.38949e-21)
(1.15127 0.00185036 -2.24411e-24)
(1.15134 0.00191546 2.37809e-24)
(1.15142 0.00197421 -1.8326e-21)
(1.15153 0.00202517 -2.32728e-21)
(1.15166 0.0020668 6.34552e-24)
(1.15181 0.00209736 3.69645e-21)
(1.15199 0.00211492 0)
(1.1522 0.00211739 0)
(1.15245 0.00210245 -3.41042e-21)
(1.15273 0.00206747 2.0704e-24)
(1.15306 0.00200961 -3.89025e-23)
(1.15342 0.00192561 4.64644e-23)
(1.15384 0.00181187 -2.60531e-23)
(1.15431 0.00166427 6.90278e-23)
(1.15483 0.00147819 -7.30752e-23)
(1.15541 0.00124846 0)
(1.15605 0.000969153 -6.92552e-21)
(1.15675 0.000633856 8.08488e-21)
(1.15751 0.000235498 -9.28515e-21)
(1.15833 -0.000233933 2.15898e-20)
(1.15922 -0.00078268 -6.12386e-21)
(1.16017 -0.00141979 -7.43247e-21)
(1.16119 -0.0021545 8.12904e-21)
(1.16226 -0.00299653 3.06982e-22)
(1.16338 -0.00395581 -3.24242e-22)
(1.16455 -0.00504256 -1.24815e-20)
(1.16576 -0.00626628 4.53118e-22)
(1.16699 -0.00763767 7.59499e-21)
(1.16824 -0.00916685 0)
(1.16949 -0.0108643 1.03412e-20)
(1.17072 -0.0127412 1.01976e-20)
(1.17191 -0.0148095 1.55977e-20)
(1.17303 -0.0170821 -9.11889e-21)
(1.17405 -0.0195736 2.06491e-21)
(1.17494 -0.0223005 -2.17295e-21)
(1.17564 -0.0252806 0)
(1.1761 -0.0285352 -2.86863e-21)
(1.17627 -0.0320875 -1.32194e-20)
(1.17607 -0.0359599 -3.17533e-21)
(1.17542 -0.0401801 3.27385e-21)
(1.1742 -0.0447698 4.15057e-21)
(1.17231 -0.0497522 1.36791e-20)
(1.1696 -0.0551422 2.85028e-22)
(1.16593 -0.0609411 -5.66866e-21)
(1.16109 -0.067148 0)
(1.15489 -0.0737263 7.86686e-21)
(1.14729 -0.080598 -7.31789e-22)
(1.13833 -0.0876661 -8.42639e-21)
(1.1274 -0.0949229 -8.26843e-21)
(1.1123 -0.1024 0)
(1.0913 -0.109795 -1.32348e-20)
(1.06897 -0.116129 1.26873e-20)
(1.05841 -0.119954 -7.68266e-21)
(1.06912 -0.120195 5.62981e-21)
(1.0877 -0.114598 -1.53884e-20)
(1.07401 -0.109901 5.43361e-21)
(0.995854 -0.114409 -2.13348e-20)
(0.852935 -0.137222 2.59526e-20)
(1.15179 -9.32884e-06 0)
(1.1518 2.25569e-05 1.2235e-20)
(1.15177 6.10442e-05 -1.30778e-20)
(1.15175 0.0001038 1.38308e-20)
(1.15172 0.000152879 -2.93716e-20)
(1.15168 0.000202711 3.09534e-20)
(1.15165 0.000257272 -2.49396e-25)
(1.15161 0.000312796 8.50653e-21)
(1.15157 0.000371945 -8.88082e-21)
(1.15153 0.000432449 0)
(1.15149 0.00049591 9.43892e-21)
(1.15145 0.000560961 -9.68399e-21)
(1.15141 0.000628591 1.43068e-26)
(1.15137 0.000697891 -4.94652e-21)
(1.15133 0.000769485 -4.90021e-21)
(1.15129 0.000842741 -4.86152e-21)
(1.15126 0.000918018 -4.72674e-21)
(1.15123 0.000994794 -4.46614e-21)
(1.1512 0.00107323 2.99218e-23)
(1.15118 0.00115288 -1.88157e-21)
(1.15116 0.00123368 -1.66149e-21)
(1.15115 0.00131515 -1.29794e-21)
(1.15114 0.00139704 0)
(1.15114 0.00147877 -3.9952e-22)
(1.15114 0.00155988 1.26585e-25)
(1.15116 0.00163963 -1.34168e-25)
(1.15119 0.00171731 -1.7704e-21)
(1.15122 0.001792 -4.23706e-23)
(1.15128 0.0018627 2.28987e-24)
(1.15134 0.00192825 -5.49658e-24)
(1.15143 0.00198735 1.83219e-21)
(1.15153 0.00203855 0)
(1.15166 0.00208027 -3.01644e-21)
(1.15181 0.00211069 0)
(1.15199 0.00212788 0)
(1.1522 0.00212966 5.65343e-21)
(1.15245 0.00211364 3.43824e-21)
(1.15273 0.00207715 0)
(1.15305 0.00201725 0)
(1.15341 0.00193065 -2.45632e-23)
(1.15382 0.00181361 2.60136e-23)
(1.15429 0.00166203 0)
(1.1548 0.0014712 -8.08165e-23)
(1.15537 0.00123592 8.55448e-23)
(1.156 0.000950316 -6.69317e-21)
(1.15668 0.000607882 0)
(1.15743 0.000201635 -1.49345e-22)
(1.15824 -0.000276249 -1.04773e-20)
(1.1591 -0.000833823 5.94827e-21)
(1.16003 -0.00148007 -1.82883e-23)
(1.16101 -0.00222385 -8.15887e-21)
(1.16205 -0.00307452 -2.23164e-23)
(1.16313 -0.00404133 -9.68343e-21)
(1.16425 -0.00513381 1.13695e-20)
(1.16541 -0.00636149 4.37418e-22)
(1.16658 -0.00773331 7.0155e-21)
(1.16777 -0.00925853 -1.11e-21)
(1.16894 -0.0109464 1.17074e-21)
(1.17009 -0.0128062 -1.39323e-21)
(1.17119 -0.014848 7.43325e-22)
(1.17222 -0.0170817 0)
(1.17313 -0.0195189 5.29395e-21)
(1.1739 -0.0221721 1.00095e-20)
(1.17448 -0.0250543 2.36374e-21)
(1.17481 -0.0281798 1.2573e-22)
(1.17484 -0.0315657 -2.74753e-21)
(1.1745 -0.0352237 6.57743e-21)
(1.17369 -0.0391733 -7.28111e-21)
(1.17232 -0.0434219 0)
(1.17029 -0.047979 -8.88769e-21)
(1.16747 -0.0528471 0)
(1.16372 -0.058009 -1.38421e-20)
(1.15885 -0.0634509 -1.68381e-22)
(1.15271 -0.0691236 1.07784e-20)
(1.14522 -0.0749499 6.28281e-21)
(1.13651 -0.0808317 -6.60845e-21)
(1.12614 -0.0867369 2.33749e-21)
(1.11219 -0.0926758 0)
(1.09268 -0.0983869 0)
(1.07098 -0.103031 0)
(1.05927 -0.105324 -5.69566e-21)
(1.06863 -0.105582 -9.10211e-21)
(1.08955 -0.101204 -8.59765e-21)
(1.08375 -0.0969703 9.10725e-21)
(1.01108 -0.101258 6.29886e-21)
(0.860683 -0.121799 -7.74119e-21)
(1.15179 -9.45724e-06 0)
(1.1518 2.28754e-05 -1.22355e-20)
(1.15177 6.16684e-05 0)
(1.15175 0.00010466 -1.38314e-20)
(1.15172 0.000154038 1.46745e-20)
(1.15169 0.000204153 -3.09079e-20)
(1.15165 0.000259018 0)
(1.15161 0.000314864 -8.50777e-21)
(1.15157 0.00037433 0)
(1.15153 0.000435178 0)
(1.15149 0.000499003 -9.43901e-21)
(1.15145 0.000564426 9.60837e-21)
(1.15141 0.00063244 -4.87026e-21)
(1.15137 0.000702146 3.07414e-25)
(1.15133 0.000774174 4.90066e-21)
(1.1513 0.000847864 5.60859e-25)
(1.15126 0.000923589 -5.94518e-25)
(1.15123 0.00100084 4.4664e-21)
(1.15121 0.00107978 4.13448e-21)
(1.15118 0.00115993 1.88085e-21)
(1.15116 0.00124124 -1.58313e-21)
(1.15115 0.00132325 1.29765e-21)
(1.15114 0.00140568 -1.46914e-25)
(1.15114 0.00148797 3.99686e-22)
(1.15115 0.00156963 1.70992e-26)
(1.15116 0.00164994 0)
(1.15119 0.00172815 9.04651e-22)
(1.15123 0.00180336 1.43328e-21)
(1.15128 0.00187452 -1.77789e-24)
(1.15135 0.00194048 -3.11819e-24)
(1.15143 0.0019999 -1.88188e-21)
(1.15154 0.0020513 4.29032e-24)
(1.15166 0.00209306 3.01697e-21)
(1.15182 0.00212333 3.78782e-21)
(1.15199 0.00214011 0)
(1.1522 0.00214117 -5.66646e-21)
(1.15244 0.00212405 3.43043e-21)
(1.15272 0.00208607 1.52394e-23)
(1.15304 0.00202416 0)
(1.1534 0.00193498 0)
(1.15381 0.00181475 5.80148e-23)
(1.15426 0.0016593 -6.14258e-23)
(1.15477 0.00146389 4.85294e-21)
(1.15533 0.00122326 0)
(1.15594 0.000931633 6.58728e-21)
(1.15662 0.000582494 -7.72019e-21)
(1.15735 0.000168909 -8.79629e-21)
(1.15813 -0.000316753 1.03111e-20)
(1.15898 -0.000882502 -5.93205e-21)
(1.15988 -0.00153683 -2.23963e-22)
(1.16083 -0.00228836 2.36779e-22)
(1.16183 -0.00314618 0)
(1.16287 -0.00411894 3.10795e-22)
(1.16395 -0.00521559 -2.3099e-20)
(1.16505 -0.0064445 6.39467e-21)
(1.16617 -0.00781417 -3.10329e-22)
(1.16729 -0.00933244 -8.03225e-21)
(1.16839 -0.0110073 0)
(1.16947 -0.0128461 0)
(1.17048 -0.0148569 -1.1751e-20)
(1.17141 -0.0170471 0)
(1.17223 -0.0194252 -7.24232e-21)
(1.17289 -0.021999 -1.33973e-20)
(1.17335 -0.0247778 8.73742e-23)
(1.17357 -0.0277696 -2.26535e-21)
(1.17347 -0.0309842 2.57039e-21)
(1.173 -0.0344262 -2.70387e-21)
(1.17208 -0.0381038 -5.55156e-21)
(1.1706 -0.0420157 -3.27561e-21)
(1.16848 -0.0461582 3.4441e-21)
(1.16559 -0.050523 0)
(1.16182 -0.0550793 1.20517e-20)
(1.157 -0.0597987 4.2241e-21)
(1.15098 -0.0646295 -5.15394e-21)
(1.14371 -0.0694919 4.6468e-21)
(1.13531 -0.0742856 -4.89131e-21)
(1.1255 -0.0789629 1.10361e-20)
(1.11261 -0.0835182 -5.17617e-21)
(1.09453 -0.0877399 0)
(1.07371 -0.0909547 -5.05569e-21)
(1.06143 -0.091799 5.31131e-21)
(1.07007 -0.0915523 -9.3748e-22)
(1.09315 -0.0880862 3.40359e-21)
(1.09492 -0.0842756 -1.21833e-21)
(1.02857 -0.0888724 3.48785e-21)
(0.872458 -0.105558 0)
(1.15179 -9.57016e-06 8.81297e-26)
(1.1518 2.31836e-05 1.21942e-20)
(1.15178 6.22718e-05 1.30197e-20)
(1.15175 0.000105498 1.37922e-20)
(1.15172 0.000155147 1.11364e-25)
(1.15169 0.000205539 1.54419e-20)
(1.15165 0.000260691 -8.10605e-21)
(1.15161 0.000316837 -8.47217e-21)
(1.15157 0.000376626 1.38789e-25)
(1.15153 0.000437785 -1.33406e-25)
(1.15149 0.000501961 -9.37622e-21)
(1.15145 0.000567732 -1.91798e-20)
(1.15141 0.000636133 4.87018e-21)
(1.15137 0.000706223 -4.86726e-21)
(1.15133 0.000778649 3.05662e-25)
(1.1513 0.000852769 5.55939e-25)
(1.15127 0.000928935 -5.89342e-25)
(1.15124 0.00100664 -5.0147e-25)
(1.15121 0.00108605 -2.91826e-23)
(1.15119 0.00116668 -8.36006e-26)
(1.15117 0.0012485 1.58321e-21)
(1.15115 0.00133102 0)
(1.15115 0.00141397 0)
(1.15114 0.00149679 -2.85746e-22)
(1.15115 0.00157897 1.58292e-25)
(1.15117 0.00165979 -1.67774e-25)
(1.1512 0.00173851 0)
(1.15123 0.00181419 -1.51429e-21)
(1.15129 0.00188578 -4.20199e-24)
(1.15135 0.00195209 2.52211e-24)
(1.15144 0.00201178 1.8813e-21)
(1.15154 0.00206334 -2.44077e-21)
(1.15167 0.00210509 6.50551e-24)
(1.15182 0.00213516 -3.79506e-21)
(1.152 0.00215149 0)
(1.1522 0.0021518 -5.6986e-21)
(1.15244 0.0021336 -3.45784e-21)
(1.15272 0.00209408 -4.1316e-21)
(1.15303 0.00203018 2.29029e-23)
(1.15339 0.00193847 -4.36353e-23)
(1.15379 0.00181513 -5.7774e-23)
(1.15424 0.00165593 1.29149e-22)
(1.15473 0.00145613 -9.74667e-21)
(1.15529 0.00121044 5.72774e-21)
(1.15589 0.000913043 -6.76931e-21)
(1.15655 0.000557665 7.82566e-21)
(1.15726 0.000137312 8.78863e-21)
(1.15803 -0.000355513 -1.01623e-20)
(1.15885 -0.000928522 5.93489e-21)
(1.15972 -0.00158996 -6.87392e-21)
(1.16064 -0.00234818 -7.60153e-21)
(1.1616 -0.00321148 5.46488e-22)
(1.16261 -0.00418846 1.69227e-23)
(1.16364 -0.00528702 2.23257e-20)
(1.16469 -0.00651493 -5.59243e-21)
(1.16575 -0.00787963 -8.04204e-21)
(1.1668 -0.00938792 7.03509e-21)
(1.16784 -0.0110461 -8.5452e-21)
(1.16883 -0.0128602 1.18041e-21)
(1.16977 -0.0148357 0)
(1.17061 -0.0169779 0)
(1.17133 -0.0192917 6.17307e-21)
(1.17189 -0.0217814 5.57865e-21)
(1.17225 -0.0244523 -7.32199e-21)
(1.17236 -0.0273053 2.04422e-21)
(1.17217 -0.0303463 0)
(1.1716 -0.0335697 0)
(1.17058 -0.0369774 2.99208e-21)
(1.16903 -0.0405581 -2.26354e-21)
(1.16686 -0.0442971 0)
(1.16395 -0.0481771 0)
(1.16022 -0.0521569 -1.02759e-20)
(1.15551 -0.0561978 3.26318e-21)
(1.14968 -0.0602433 0)
(1.14268 -0.0642085 0)
(1.13466 -0.0679948 0)
(1.12544 -0.0715437 0)
(1.11357 -0.0748463 4.18179e-21)
(1.09693 -0.077745 -2.63908e-21)
(1.07714 -0.0797959 5.28665e-22)
(1.06447 -0.0794718 6.29719e-22)
(1.07221 -0.0784337 -9.09976e-22)
(1.09663 -0.0752334 2.25304e-21)
(1.10503 -0.0710267 -2.3287e-21)
(1.04638 -0.0752196 -3.11895e-21)
(0.887009 -0.0870082 1.20582e-22)
(1.15179 -9.67644e-06 1.15462e-20)
(1.1518 2.34938e-05 -1.21943e-20)
(1.15178 6.2855e-05 -2.03598e-23)
(1.15175 0.000106311 -1.37931e-20)
(1.15172 0.000156209 -1.10881e-25)
(1.15169 0.000206868 2.35722e-25)
(1.15165 0.000262293 8.10668e-21)
(1.15161 0.00031872 1.80108e-23)
(1.15157 0.000378803 -8.79636e-21)
(1.15153 0.000440283 2.73595e-25)
(1.15149 0.000504777 9.37666e-21)
(1.15145 0.000570897 1.91046e-20)
(1.15141 0.000639633 4.82488e-21)
(1.15137 0.000710107 4.86647e-21)
(1.15134 0.000782929 2.82918e-25)
(1.1513 0.000857442 -8.51e-25)
(1.15127 0.000934036 5.84141e-25)
(1.15124 0.00101218 -4.94805e-25)
(1.15121 0.00109204 -4.01407e-21)
(1.15119 0.00117313 8.70856e-25)
(1.15117 0.00125544 -4.16876e-25)
(1.15116 0.00133843 0)
(1.15115 0.00142188 0)
(1.15115 0.00150518 2.85759e-22)
(1.15116 0.00158786 0)
(1.15117 0.00166916 -7.37535e-25)
(1.1512 0.00174833 -1.02004e-21)
(1.15124 0.00182443 3.07264e-21)
(1.15129 0.0018964 1.86627e-24)
(1.15136 0.00196303 0)
(1.15144 0.00202293 -4.14796e-24)
(1.15155 0.00207459 2.44518e-21)
(1.15167 0.00211627 -3.10462e-21)
(1.15182 0.00214608 6.94645e-24)
(1.152 0.00216192 0)
(1.1522 0.00216144 5.71085e-21)
(1.15244 0.0021421 2.886e-23)
(1.15271 0.00210105 4.11829e-21)
(1.15302 0.00203516 0)
(1.15337 0.00194094 0)
(1.15377 0.00181456 0)
(1.15421 0.00165171 0)
(1.1547 0.00144763 3.50741e-23)
(1.15524 0.00119711 -1.12202e-20)
(1.15583 0.000894341 1.29485e-20)
(1.15647 0.000533013 -1.05542e-23)
(1.15717 0.000106409 1.30991e-22)
(1.15792 -0.000392783 -9.96529e-21)
(1.15872 -0.000972193 0)
(1.15956 -0.00163965 6.44323e-21)
(1.16045 -0.00240321 1.7957e-22)
(1.16138 -0.00327077 2.56472e-22)
(1.16233 -0.00424993 1.91576e-20)
(1.16332 -0.00534838 -1.09695e-20)
(1.16432 -0.00657298 -6.67905e-21)
(1.16532 -0.00792994 8.18577e-22)
(1.16631 -0.00942507 7.275e-21)
(1.16728 -0.0110632 1.75746e-20)
(1.1682 -0.0128487 -2.2727e-21)
(1.16905 -0.0147848 2.49151e-21)
(1.16981 -0.0168746 3.89025e-21)
(1.17045 -0.0191198 -5.29153e-22)
(1.17092 -0.021521 0)
(1.17119 -0.0240791 9.01286e-21)
(1.17121 -0.0267912 -8.7377e-21)
(1.17093 -0.0296548 -7.29048e-21)
(1.17028 -0.0326607 0)
(1.1692 -0.035801 0)
(1.16761 -0.0390575 5.00164e-21)
(1.16543 -0.0424066 0)
(1.16256 -0.0458218 4.03987e-21)
(1.15891 -0.0492556 3.90199e-21)
(1.15436 -0.05266 -3.641e-21)
(1.14878 -0.0559721 0)
(1.14213 -0.0591061 1.31536e-21)
(1.13455 -0.0619655 -9.04786e-22)
(1.12596 -0.0644787 8.71743e-22)
(1.11512 -0.0666395 -2.62357e-21)
(1.09992 -0.0683012 -1.18845e-21)
(1.08125 -0.0692543 1.47424e-22)
(1.06821 -0.0678467 -4.05294e-21)
(1.07457 -0.0657506 -1.74396e-21)
(1.0993 -0.0622785 -1.57857e-21)
(1.11314 -0.0571207 3.87465e-21)
(1.06354 -0.0603562 -6.90886e-21)
(0.904518 -0.0670591 1.87289e-22)
(1.15179 -9.76194e-06 -2.82282e-23)
(1.1518 2.37868e-05 1.21521e-20)
(1.15178 6.34279e-05 -2.04825e-23)
(1.15175 0.000107088 2.10051e-25)
(1.15172 0.000157242 -2.22668e-25)
(1.15169 0.000208139 2.33678e-25)
(1.15165 0.000263826 -2.47699e-25)
(1.15161 0.000320515 8.45536e-21)
(1.15157 0.000380883 1.75714e-20)
(1.15153 0.000442654 -9.06793e-21)
(1.15149 0.000507451 2.89101e-25)
(1.15145 0.000573886 -1.90261e-20)
(1.15141 0.000642982 -4.82512e-21)
(1.15138 0.000713793 4.8123e-21)
(1.15134 0.000786978 -4.77077e-21)
(1.1513 0.000861889 -4.6718e-21)
(1.15127 0.000938875 4.50409e-21)
(1.15124 0.00101743 -4.25869e-21)
(1.15121 0.00109772 3.06676e-23)
(1.15119 0.00117926 4.6934e-25)
(1.15117 0.001262 -3.10917e-25)
(1.15116 0.00134547 1.11736e-21)
(1.15115 0.00142936 0)
(1.15115 0.00151313 -1.70741e-22)
(1.15116 0.00159625 0)
(1.15118 0.001678 -7.72805e-25)
(1.15121 0.00175758 1.0229e-21)
(1.15124 0.00183406 -1.55971e-21)
(1.1513 0.00190634 -2.46927e-24)
(1.15136 0.00197321 2.61692e-24)
(1.15145 0.00203327 0)
(1.15155 0.00208496 -2.4878e-21)
(1.15168 0.00212651 -3.16668e-23)
(1.15182 0.002156 -8.1338e-24)
(1.152 0.00217128 -1.12299e-23)
(1.1522 0.00216995 4.50562e-23)
(1.15243 0.00214943 -2.54546e-23)
(1.1527 0.00210682 0)
(1.15301 0.00203891 0)
(1.15336 0.00194221 -5.81443e-21)
(1.15375 0.00181282 -6.9676e-21)
(1.15418 0.00164644 -8.12169e-21)
(1.15466 0.00143829 9.53505e-21)
(1.15519 0.00118314 5.5846e-21)
(1.15577 0.000875294 -6.38547e-21)
(1.1564 0.000508504 1.01568e-23)
(1.15708 7.61851e-05 1.12046e-23)
(1.1578 -0.000428777 9.81711e-21)
(1.15858 -0.00101367 0)
(1.15939 -0.00168613 6.35079e-21)
(1.16025 -0.00245361 7.38917e-21)
(1.16114 -0.0033238 8.63887e-21)
(1.16206 -0.00430352 -9.98239e-21)
(1.163 -0.00539968 1.01699e-20)
(1.16394 -0.00661844 5.90546e-21)
(1.16489 -0.0079649 0)
(1.16582 -0.00944379 -3.84336e-22)
(1.16672 -0.0110585 -8.02532e-21)
(1.16757 -0.0128116 0)
(1.16835 -0.0147044 -8.91971e-21)
(1.16903 -0.0167375 -6.49871e-21)
(1.16958 -0.0189101 -4.32421e-21)
(1.16997 -0.0212188 5.46372e-21)
(1.17016 -0.0236613 1.53167e-21)
(1.17011 -0.0262288 3.70087e-21)
(1.16976 -0.0289152 8.99525e-21)
(1.16906 -0.0317046 -1.71623e-21)
(1.16795 -0.0345816 -6.31679e-21)
(1.16635 -0.0375232 4.97559e-21)
(1.16419 -0.0404967 0)
(1.1614 -0.0434692 -4.05213e-21)
(1.15788 -0.0463887 -3.91514e-21)
(1.15354 -0.0491964 3.65462e-21)
(1.14827 -0.0518305 1.21357e-21)
(1.14203 -0.0541998 -1.74542e-21)
(1.13495 -0.0562074 1.35633e-21)
(1.12705 -0.0577708 0)
(1.11725 -0.0588904 0)
(1.10349 -0.0593832 4.48216e-21)
(1.08609 -0.05922 2.62084e-21)
(1.07293 -0.05675 2.76408e-21)
(1.07789 -0.0534112 2.88769e-21)
(1.10235 -0.0492909 9.84167e-21)
(1.12053 -0.0429458 5.96227e-21)
(1.08072 -0.0446908 5.08203e-21)
(0.926124 -0.0467261 -1.80835e-21)
(1.15179 -9.82952e-06 -1.15219e-20)
(1.1518 2.40859e-05 -2.12808e-23)
(1.15178 6.39857e-05 -1.29807e-20)
(1.15175 0.000107848 0)
(1.15172 0.000158228 -2.21679e-25)
(1.15169 0.000209362 1.53408e-20)
(1.15165 0.000265285 -2.4439e-25)
(1.15161 0.000322233 8.41943e-21)
(1.15157 0.000382859 -8.77507e-21)
(1.15153 0.000444903 9.06839e-21)
(1.15149 0.000509988 -1.00844e-26)
(1.15145 0.000576727 1.89513e-20)
(1.15142 0.000646126 2.99247e-25)
(1.15138 0.000717279 -4.81182e-21)
(1.15134 0.000790815 9.51046e-21)
(1.15131 0.000866077 4.67038e-21)
(1.15127 0.000943441 -4.53159e-23)
(1.15124 0.0010224 4.25778e-21)
(1.15122 0.00110307 1.96146e-21)
(1.1512 0.00118503 1.7068e-21)
(1.15118 0.0012682 -1.42353e-21)
(1.15117 0.00135207 -1.11709e-21)
(1.15116 0.0014364 0)
(1.15116 0.00152058 2.83448e-22)
(1.15117 0.00160412 2.61126e-22)
(1.15118 0.00168624 0)
(1.15121 0.00176619 0)
(1.15125 0.00184298 0)
(1.1513 0.00191552 2.51381e-24)
(1.15137 0.00198258 -5.9713e-24)
(1.15145 0.00204273 -7.40598e-25)
(1.15155 0.00209437 -1.58427e-23)
(1.15168 0.00213572 3.11849e-21)
(1.15183 0.00216481 1.63564e-23)
(1.152 0.00217945 -1.73304e-23)
(1.1522 0.00217721 -2.40818e-23)
(1.15243 0.00215545 -3.40056e-24)
(1.1527 0.00211122 -4.15548e-21)
(1.153 0.0020413 4.93391e-21)
(1.15334 0.00194212 5.90561e-21)
(1.15372 0.00180978 1.37405e-20)
(1.15415 0.00163995 8.18135e-21)
(1.15462 0.00142785 -4.74837e-21)
(1.15514 0.00116836 0)
(1.15571 0.000855737 0)
(1.15632 0.000483962 7.30771e-21)
(1.15698 4.65321e-05 -8.52801e-21)
(1.15769 -0.00046346 -9.44819e-21)
(1.15843 -0.00105295 5.46166e-21)
(1.15922 -0.00172921 -1.57836e-22)
(1.16005 -0.00249942 -4.57753e-22)
(1.1609 -0.00337039 -1.54713e-20)
(1.16177 -0.00434877 -8.77586e-21)
(1.16267 -0.00544049 -1.01681e-20)
(1.16356 -0.00665081 0)
(1.16445 -0.00798404 0)
(1.16532 -0.00944341 -1.34029e-20)
(1.16616 -0.0110312 0)
(1.16694 -0.0127481 7.65962e-21)
(1.16765 -0.0145941 6.94759e-22)
(1.16825 -0.0165665 1.15269e-21)
(1.16873 -0.0186624 3.4207e-21)
(1.16905 -0.0208757 -6.09296e-22)
(1.16918 -0.0231989 1.33393e-21)
(1.16906 -0.025621 5.11671e-21)
(1.16866 -0.02813 -6.63409e-21)
(1.16793 -0.0307047 -5.12749e-21)
(1.1668 -0.0333248 7.73502e-21)
(1.16523 -0.0359624 -4.56337e-21)
(1.16313 -0.0385767 2.01314e-21)
(1.16045 -0.0411305 0)
(1.15711 -0.0435679 1.05868e-21)
(1.15304 -0.0458229 3.15399e-22)
(1.14812 -0.0478329 -1.54883e-21)
(1.14233 -0.0495031 0)
(1.13582 -0.0507366 0)
(1.12864 -0.0514385 -2.42779e-21)
(1.1199 -0.0516135 2.56334e-21)
(1.10762 -0.0510456 1.81627e-21)
(1.09169 -0.0498072 -4.70132e-21)
(1.07882 -0.046331 -4.16249e-21)
(1.08265 -0.0417256 4.33733e-21)
(1.10668 -0.0366632 -3.62547e-21)
(1.1285 -0.0290652 -2.02941e-20)
(1.09866 -0.0286836 -8.21724e-21)
(0.952822 -0.0267236 -1.8312e-21)
(1.15179 -9.87596e-06 8.74461e-26)
(1.1518 2.4383e-05 -1.21331e-20)
(1.15178 6.45296e-05 0)
(1.15176 0.000108582 2.09416e-25)
(1.15172 0.000159182 -1.45413e-20)
(1.15169 0.000210529 -1.534e-20)
(1.15165 0.000266683 2.46823e-25)
(1.15162 0.000323856 -1.88267e-23)
(1.15158 0.000384728 5.26476e-25)
(1.15154 0.000447026 9.01309e-21)
(1.1515 0.000512382 9.24966e-21)
(1.15146 0.000579394 -1.88727e-20)
(1.15142 0.000649095 5.95801e-25)
(1.15138 0.000720548 -5.6241e-25)
(1.15134 0.000794407 -4.73667e-21)
(1.15131 0.000870007 -5.86242e-25)
(1.15128 0.000947727 -4.63882e-23)
(1.15125 0.00102703 4.15011e-21)
(1.15122 0.0011081 5.02927e-25)
(1.1512 0.00119043 -3.37714e-21)
(1.15118 0.00127397 4.00837e-23)
(1.15117 0.00135824 -1.02474e-21)
(1.15116 0.00144296 0)
(1.15116 0.00152751 -1.12706e-22)
(1.15117 0.00161141 -2.61125e-22)
(1.15119 0.00169387 0)
(1.15122 0.00177412 0)
(1.15126 0.00185116 1.88593e-24)
(1.15131 0.0019239 -1.99871e-24)
(1.15137 0.00199107 0)
(1.15146 0.00205121 8.5867e-24)
(1.15156 0.00210273 2.50954e-21)
(1.15168 0.0021438 0)
(1.15183 0.0021724 -3.9128e-21)
(1.152 0.00218633 0)
(1.1522 0.0021831 5.78109e-21)
(1.15243 0.00216004 0)
(1.15269 0.00211416 1.77084e-24)
(1.15299 0.0020422 -4.97825e-21)
(1.15332 0.00194057 5.86538e-21)
(1.1537 0.0018053 -6.88082e-21)
(1.15412 0.00163213 6.60911e-23)
(1.15458 0.00141627 -1.46875e-22)
(1.15509 0.00115262 8.14134e-23)
(1.15564 0.00083564 6.25473e-21)
(1.15624 0.000459296 -7.5414e-21)
(1.15688 1.74004e-05 1.26426e-22)
(1.15756 -0.000496752 9.56817e-21)
(1.15829 -0.00108995 -5.48301e-21)
(1.15904 -0.0017688 -5.81953e-21)
(1.15983 -0.00254017 -6.3359e-21)
(1.16065 -0.00341041 7.37702e-21)
(1.16148 -0.00438537 3.26267e-22)
(1.16233 -0.00547029 0)
(1.16317 -0.00666958 6.72327e-22)
(1.16401 -0.0079866 -6.34368e-21)
(1.16482 -0.00942344 6.50692e-21)
(1.16559 -0.0109808 0)
(1.16631 -0.0126582 -7.65625e-21)
(1.16695 -0.014453 6.8301e-22)
(1.16749 -0.0163615 0)
(1.1679 -0.0183772 -4.93884e-22)