/*--------------------------------*- C++ -*----------------------------------*\
  =========                 |
  \\      /  F ield         | OpenFOAM: The Open Source CFD Toolbox
   \\    /   O peration     | Website:  https://openfoam.org
    \\  /    A nd           | Version:  9
     \\/     M anipulation  |
\*---------------------------------------------------------------------------*/
FoamFile
{
    format      ascii;
    class       volScalarField;
    location    "750";
    object      gammaInt;
}
// * * * * * * * * * * * * * * * * * * * * * * * * * * * * * * * * * * * * * //

dimensions      [0 0 0 0 0 0 0];

internalField   nonuniform List<scalar> 
13538
(
0.999035
0.998703
0.998666
0.998659
0.998647
0.998632
0.998615
0.998597
0.998575
0.998551
0.998525
0.998496
0.998467
0.998438
0.998409
0.99838
0.99835
0.998319
0.998287
0.998253
0.998218
0.998181
0.998142
0.998102
0.998061
0.998018
0.997974
0.997929
0.997884
0.997839
0.997793
0.997748
0.997703
0.997657
0.997612
0.997566
0.997521
0.997476
0.997422
0.997366
0.99731
0.997253
0.997195
0.997133
0.997067
0.996999
0.996925
0.996847
0.996762
0.996672
0.996574
0.996459
0.99633
0.996189
0.996038
0.995874
0.995709
0.995532
0.995348
0.995157
0.994954
0.994742
0.99452
0.994288
0.994041
0.993779
0.993498
0.9932
0.992884
0.992554
0.992202
0.991837
0.991452
0.991061
0.990653
0.990205
0.989762
0.989293
0.988808
0.98833
0.987826
0.987338
0.986772
0.986313
0.985647
0.984914
0.983867
0.983014
0.981693
0.981237
0.979251
0.977872
0.964175
0.943684
0.863082
0.701163
0.430201
0.105262
0.0174858
0.99918
0.998798
0.998737
0.99872
0.998703
0.998685
0.998666
0.998647
0.998625
0.9986
0.998573
0.998545
0.998515
0.998486
0.998457
0.998428
0.998398
0.998367
0.998335
0.998301
0.998266
0.998229
0.99819
0.998149
0.998107
0.998064
0.998019
0.997973
0.997926
0.997879
0.997831
0.997782
0.997734
0.997685
0.997635
0.997585
0.997535
0.997483
0.997433
0.997381
0.997328
0.997272
0.997213
0.99715
0.997084
0.997012
0.996936
0.996853
0.996763
0.996667
0.996562
0.996449
0.996327
0.996196
0.996054
0.995904
0.995744
0.99557
0.995387
0.995193
0.994987
0.994771
0.994541
0.9943
0.994044
0.993769
0.993472
0.993156
0.992819
0.992465
0.992085
0.99169
0.991271
0.990849
0.990416
0.989966
0.989524
0.989055
0.988561
0.988068
0.987548
0.987026
0.986414
0.985889
0.985197
0.984619
0.983555
0.982918
0.981315
0.98133
0.978841
0.979446
0.964627
0.949822
0.879308
0.737617
0.463564
0.121768
0.0190954
0.999298
0.998901
0.998818
0.99879
0.998767
0.998745
0.998723
0.998701
0.998677
0.998651
0.998622
0.998592
0.998561
0.99853
0.998499
0.998469
0.998438
0.998406
0.998373
0.998338
0.998302
0.998265
0.998226
0.998185
0.998143
0.998099
0.998054
0.998008
0.997962
0.997914
0.997867
0.997819
0.99777
0.997722
0.997673
0.997625
0.997575
0.997526
0.997476
0.997424
0.997371
0.997316
0.997259
0.997198
0.997134
0.997067
0.996995
0.996917
0.996833
0.996743
0.996645
0.99654
0.996426
0.996303
0.996171
0.996029
0.995879
0.995717
0.995545
0.995363
0.995169
0.994967
0.994752
0.994528
0.99429
0.994036
0.993759
0.993467
0.993153
0.992825
0.992473
0.992101
0.991706
0.991305
0.990891
0.990463
0.990044
0.989595
0.98912
0.988648
0.988143
0.98765
0.987041
0.986559
0.985833
0.985359
0.984181
0.983709
0.981654
0.982082
0.978599
0.981089
0.964406
0.953099
0.885631
0.76052
0.485573
0.133094
0.0203338
0.999395
0.998995
0.998894
0.998856
0.998827
0.998802
0.998779
0.998755
0.99873
0.998703
0.998673
0.998642
0.99861
0.998578
0.998547
0.998515
0.998484
0.998451
0.998418
0.998383
0.998347
0.998309
0.99827
0.99823
0.998187
0.998143
0.998098
0.998052
0.998004
0.997956
0.997907
0.997858
0.997808
0.997758
0.997707
0.997656
0.997605
0.997554
0.997501
0.997448
0.997393
0.997337
0.997279
0.997218
0.997154
0.997086
0.997014
0.996937
0.996855
0.996766
0.996671
0.996569
0.996459
0.99634
0.996212
0.996075
0.995929
0.995772
0.995606
0.995429
0.995241
0.995045
0.994836
0.994619
0.994388
0.994141
0.993873
0.993587
0.993282
0.99296
0.992615
0.99225
0.99186
0.991463
0.991053
0.990634
0.990218
0.989774
0.989305
0.988833
0.988333
0.987846
0.987231
0.986771
0.986017
0.985627
0.984409
0.984157
0.981735
0.982672
0.978191
0.982683
0.964327
0.956757
0.891611
0.782075
0.508942
0.145322
0.021642
0.999476
0.999084
0.998967
0.998919
0.998886
0.998858
0.998832
0.998807
0.99878
0.998752
0.998721
0.998689
0.998656
0.998624
0.998591
0.998559
0.998526
0.998493
0.998459
0.998424
0.998387
0.99835
0.99831
0.99827
0.998227
0.998183
0.998138
0.998091
0.998043
0.997995
0.997945
0.997895
0.997844
0.997793
0.997742
0.99769
0.997638
0.997586
0.997533
0.997479
0.997424
0.997368
0.99731
0.997249
0.997186
0.99712
0.997049
0.996974
0.996894
0.996809
0.996716
0.996618
0.996512
0.996398
0.996276
0.996144
0.996004
0.995854
0.995695
0.995525
0.995345
0.995156
0.994956
0.994747
0.994526
0.99429
0.994033
0.993759
0.993466
0.993156
0.992822
0.992469
0.992092
0.991704
0.991309
0.990902
0.990496
0.990065
0.989607
0.989142
0.988649
0.988171
0.987563
0.987119
0.986346
0.986009
0.984747
0.984711
0.981941
0.983358
0.977818
0.984195
0.964163
0.960021
0.895529
0.799566
0.530982
0.157375
0.0229081
0.999544
0.999165
0.999037
0.998981
0.998942
0.998911
0.998883
0.998857
0.998829
0.9988
0.998769
0.998736
0.998703
0.998669
0.998636
0.998603
0.998569
0.998535
0.998501
0.998465
0.998429
0.998391
0.998351
0.998311
0.998268
0.998224
0.998179
0.998132
0.998084
0.998035
0.997984
0.997934
0.997882
0.99783
0.997778
0.997725
0.997672
0.997619
0.997564
0.99751
0.997454
0.997397
0.997338
0.997277
0.997214
0.997148
0.997078
0.997004
0.996926
0.996842
0.996753
0.996657
0.996555
0.996444
0.996326
0.996199
0.996064
0.99592
0.995766
0.995603
0.995429
0.995246
0.995052
0.994852
0.994639
0.994412
0.994165
0.993899
0.993617
0.993316
0.992994
0.99265
0.992282
0.991903
0.991518
0.991121
0.990729
0.990306
0.989858
0.989399
0.988914
0.988443
0.987845
0.987405
0.986639
0.986327
0.985046
0.985193
0.982173
0.984006
0.977519
0.985536
0.964061
0.963073
0.898822
0.813769
0.551767
0.169451
0.0242033
0.9996
0.999239
0.999104
0.99904
0.998996
0.998962
0.998933
0.998905
0.998877
0.998847
0.998815
0.998782
0.998748
0.998714
0.998679
0.998646
0.998611
0.998577
0.998542
0.998506
0.998469
0.998431
0.998391
0.998351
0.998308
0.998264
0.998219
0.998172
0.998124
0.998074
0.998023
0.997972
0.99792
0.997867
0.997814
0.99776
0.997706
0.997652
0.997596
0.997541
0.997484
0.997427
0.997367
0.997306
0.997243
0.997177
0.997108
0.997035
0.996958
0.996876
0.996789
0.996696
0.996596
0.996489
0.996375
0.996252
0.996123
0.995983
0.995835
0.995677
0.995509
0.995333
0.995146
0.994953
0.994748
0.99453
0.994291
0.994036
0.993763
0.993474
0.99316
0.992828
0.992469
0.992099
0.991723
0.991339
0.990958
0.990545
0.990106
0.989656
0.989181
0.988715
0.988135
0.987686
0.986951
0.986627
0.985371
0.985618
0.982485
0.984607
0.977362
0.986654
0.964071
0.965794
0.901552
0.824808
0.572315
0.181451
0.0254687
0.999648
0.999307
0.999167
0.999095
0.999048
0.999011
0.998981
0.998952
0.998923
0.998893
0.99886
0.998827
0.998792
0.998757
0.998723
0.998688
0.998653
0.998618
0.998583
0.998546
0.998509
0.998471
0.998431
0.99839
0.998348
0.998304
0.998259
0.998212
0.998163
0.998113
0.998062
0.99801
0.997957
0.997904
0.99785
0.997796
0.997741
0.997685
0.997629
0.997572
0.997515
0.997457
0.997397
0.997335
0.997272
0.997206
0.997137
0.997065
0.996989
0.996909
0.996823
0.996732
0.996635
0.996531
0.99642
0.996301
0.996176
0.996041
0.995898
0.995745
0.995583
0.995412
0.995231
0.995045
0.994848
0.994638
0.994408
0.994161
0.993897
0.993618
0.993315
0.992991
0.992641
0.992281
0.991915
0.991543
0.991173
0.990771
0.99034
0.989899
0.989432
0.988969
0.988411
0.987953
0.987257
0.986901
0.985711
0.985962
0.982886
0.985103
0.977405
0.987503
0.964247
0.968136
0.904242
0.833108
0.591601
0.193339
0.0267812
0.999688
0.999368
0.999225
0.999147
0.999096
0.999058
0.999027
0.998998
0.998968
0.998937
0.998904
0.99887
0.998835
0.9988
0.998765
0.99873
0.998694
0.998659
0.998623
0.998586
0.998548
0.99851
0.99847
0.998429
0.998387
0.998344
0.998298
0.998251
0.998202
0.998152
0.998101
0.998049
0.997995
0.997941
0.997886
0.997831
0.997776
0.997719
0.997662
0.997605
0.997547
0.997487
0.997427
0.997365
0.997301
0.997235
0.997167
0.997095
0.997019
0.99694
0.996856
0.996767
0.996672
0.996571
0.996463
0.996347
0.996225
0.996094
0.995956
0.995808
0.995651
0.995485
0.99531
0.99513
0.994941
0.994738
0.994517
0.994277
0.994023
0.993753
0.99346
0.993144
0.992803
0.992453
0.992098
0.991737
0.991379
0.990986
0.990565
0.990129
0.989673
0.989215
0.988675
0.988212
0.987552
0.98716
0.986062
0.986234
0.983375
0.98548
0.977681
0.98805
0.96466
0.970077
0.90702
0.839079
0.610133
0.205364
0.028013
0.999723
0.999424
0.999278
0.999195
0.999141
0.999103
0.999072
0.999042
0.999011
0.99898
0.998947
0.998913
0.998878
0.998842
0.998806
0.998771
0.998735
0.998699
0.998662
0.998625
0.998587
0.998549
0.998509
0.998468
0.998426
0.998382
0.998337
0.99829
0.998241
0.998191
0.99814
0.998087
0.998033
0.997978
0.997923
0.997867
0.997811
0.997754
0.997696
0.997638
0.997578
0.997518
0.997457
0.997394
0.99733
0.997264
0.997195
0.997124
0.997049
0.99697
0.996887
0.9968
0.996707
0.996608
0.996502
0.99639
0.996271
0.996144
0.99601
0.995866
0.995714
0.995552
0.995382
0.995209
0.995027
0.99483
0.994617
0.994385
0.99414
0.993879
0.993595
0.993288
0.992955
0.992613
0.992268
0.991921
0.991575
0.991191
0.99078
0.990347
0.989904
0.98945
0.988927
0.988461
0.987837
0.987412
0.986404
0.986462
0.983932
0.985738
0.978199
0.988289
0.965337
0.971734
0.91003
0.843632
0.627518
0.217398
0.029308
0.999752
0.999471
0.999324
0.999239
0.999185
0.999147
0.999114
0.999084
0.999053
0.999022
0.998988
0.998954
0.998919
0.998883
0.998847
0.998811
0.998775
0.998738
0.998701
0.998664
0.998626
0.998587
0.998547
0.998506
0.998464
0.998421
0.998376
0.998329
0.99828
0.99823
0.998178
0.998125
0.998071
0.998016
0.99796
0.997904
0.997847
0.997789
0.99773
0.997671
0.997611
0.99755
0.997488
0.997425
0.99736
0.997293
0.997224
0.997153
0.997078
0.997
0.996918
0.996832
0.99674
0.996643
0.99654
0.99643
0.996314
0.99619
0.99606
0.995919
0.995772
0.995614
0.99545
0.995282
0.995107
0.994916
0.99471
0.994486
0.994249
0.993996
0.993721
0.993421
0.993097
0.992765
0.99243
0.992095
0.991762
0.991385
0.990984
0.990557
0.990124
0.989675
0.989168
0.988708
0.988105
0.987665
0.986728
0.986682
0.984485
0.985913
0.97893
0.988243
0.966307
0.973387
0.91335
0.848606
0.64455
0.229417
0.0306189
0.999779
0.99951
0.999364
0.99928
0.999227
0.999189
0.999156
0.999125
0.999094
0.999062
0.999029
0.998994
0.998959
0.998923
0.998887
0.99885
0.998814
0.998777
0.99874
0.998702
0.998664
0.998625
0.998585
0.998544
0.998502
0.998459
0.998414
0.998367
0.998318
0.998268
0.998216
0.998163
0.998109
0.998053
0.997997
0.99794
0.997883
0.997824
0.997765
0.997705
0.997644
0.997582
0.997519
0.997455
0.99739
0.997323
0.997253
0.997182
0.997107
0.99703
0.996948
0.996863
0.996772
0.996677
0.996575
0.996467
0.996354
0.996234
0.996106
0.995969
0.995825
0.995671
0.995512
0.99535
0.995181
0.994996
0.994795
0.994578
0.994349
0.994105
0.993837
0.993545
0.993228
0.992907
0.99258
0.992262
0.991939
0.991572
0.991175
0.990756
0.990334
0.989892
0.989399
0.988944
0.988366
0.987911
0.987036
0.986911
0.98496
0.986109
0.979761
0.987991
0.967569
0.97497
0.916938
0.853937
0.66085
0.241454
0.0319038
0.999802
0.999544
0.999403
0.999322
0.999269
0.999229
0.999195
0.999164
0.999133
0.999101
0.999068
0.999033
0.998998
0.998962
0.998926
0.998889
0.998852
0.998815
0.998778
0.99874
0.998701
0.998662
0.998622
0.998581
0.99854
0.998496
0.998451
0.998405
0.998356
0.998306
0.998254
0.998201
0.998146
0.998091
0.998035
0.997977
0.997919
0.99786
0.9978
0.997739
0.997677
0.997614
0.997551
0.997486
0.99742
0.997352
0.997283
0.997211
0.997136
0.997059
0.996978
0.996893
0.996803
0.996708
0.996609
0.996503
0.996392
0.996274
0.996149
0.996016
0.995875
0.995725
0.99557
0.995413
0.995248
0.99507
0.994875
0.994663
0.994443
0.994206
0.993947
0.993661
0.993352
0.993038
0.992724
0.992421
0.992107
0.991749
0.991358
0.990947
0.990532
0.990099
0.98962
0.98917
0.988615
0.988154
0.987333
0.987144
0.985399
0.986348
0.980548
0.987725
0.969047
0.976501
0.920819
0.859695
0.676296
0.253689
0.0332686
0.999822
0.999582
0.999443
0.999362
0.999308
0.999267
0.999233
0.999202
0.99917
0.999138
0.999105
0.999071
0.999035
0.999
0.998964
0.998927
0.99889
0.998853
0.998815
0.998777
0.998738
0.998699
0.998659
0.998618
0.998577
0.998533
0.998489
0.998442
0.998393
0.998343
0.998291
0.998238
0.998184
0.998128
0.998072
0.998014
0.997955
0.997896
0.997835
0.997773
0.997711
0.997647
0.997583
0.997517
0.997451
0.997382
0.997312
0.99724
0.997165
0.997087
0.997007
0.996922
0.996833
0.996739
0.996641
0.996537
0.996428
0.996312
0.99619
0.996059
0.99592
0.995774
0.995624
0.995472
0.995312
0.995138
0.994947
0.994743
0.99453
0.994299
0.994048
0.993767
0.993467
0.993161
0.99286
0.992571
0.99227
0.991914
0.991531
0.991127
0.990722
0.990297
0.989835
0.989392
0.988851
0.988389
0.987619
0.987379
0.985799
0.986608
0.981291
0.987579
0.970528
0.978004
0.925018
0.865698
0.691165
0.266095
0.0345849
0.999838
0.999616
0.999482
0.999399
0.999345
0.999303
0.999269
0.999238
0.999207
0.999175
0.999141
0.999107
0.999072
0.999037
0.999001
0.998964
0.998927
0.99889
0.998852
0.998814
0.998775
0.998735
0.998695
0.998655
0.998613
0.99857
0.998525
0.998479
0.99843
0.99838
0.998328
0.998275
0.998221
0.998166
0.998109
0.998051
0.997992
0.997932
0.997871
0.997808
0.997745
0.997681
0.997616
0.997549
0.997482
0.997413
0.997342
0.997269
0.997194
0.997116
0.997035
0.996951
0.996863
0.996769
0.996672
0.996569
0.996462
0.996348
0.996228
0.996099
0.995963
0.995819
0.995673
0.995527
0.995372
0.995202
0.995014
0.994816
0.99461
0.994386
0.994141
0.993865
0.993571
0.993276
0.992989
0.992715
0.992424
0.992073
0.991694
0.991299
0.990906
0.990485
0.99004
0.989603
0.989087
0.988618
0.987895
0.987617
0.986168
0.986851
0.982005
0.987519
0.971866
0.979472
0.929337
0.872078
0.705644
0.278487
0.0359353
0.999853
0.999645
0.999516
0.999435
0.999379
0.999338
0.999304
0.999272
0.999241
0.999209
0.999176
0.999142
0.999107
0.999072
0.999037
0.999001
0.998964
0.998927
0.998889
0.99885
0.998811
0.998771
0.998731
0.998691
0.998649
0.998606
0.998561
0.998515
0.998467
0.998417
0.998365
0.998312
0.998258
0.998203
0.998146
0.998088
0.998029
0.997968
0.997906
0.997844
0.99778
0.997715
0.997649
0.997582
0.997513
0.997443
0.997372
0.997298
0.997223
0.997145
0.997064
0.996979
0.996891
0.996799
0.996702
0.9966
0.996494
0.996382
0.996263
0.996137
0.996002
0.995862
0.99572
0.995578
0.995427
0.99526
0.995076
0.994884
0.994684
0.994468
0.994226
0.993955
0.993668
0.993383
0.993113
0.992853
0.992568
0.992223
0.991846
0.991459
0.991081
0.990668
0.990235
0.989807
0.989308
0.988846
0.98816
0.987856
0.986516
0.987089
0.982691
0.987533
0.973119
0.980798
0.933656
0.878757
0.71963
0.291012
0.0373916
0.999866
0.999672
0.999548
0.999467
0.999412
0.999371
0.999337
0.999305
0.999274
0.999242
0.999209
0.999176
0.999142
0.999107
0.999072
0.999037
0.999
0.998962
0.998924
0.998886
0.998846
0.998807
0.998767
0.998726
0.998685
0.998642
0.998597
0.998551
0.998502
0.998453
0.998401
0.998349
0.998295
0.99824
0.998183
0.998125
0.998066
0.998005
0.997943
0.997879
0.997815
0.997749
0.997682
0.997614
0.997545
0.997475
0.997402
0.997328
0.997252
0.997174
0.997092
0.997008
0.99692
0.996827
0.996731
0.99663
0.996525
0.996414
0.996297
0.996172
0.996039
0.995902
0.995765
0.995626
0.995479
0.995314
0.995132
0.994946
0.994753
0.994542
0.994303
0.994036
0.993759
0.993483
0.993231
0.992986
0.992705
0.992362
0.991989
0.991617
0.991246
0.990846
0.990428
0.990006
0.989526
0.989067
0.988418
0.988095
0.986851
0.98733
0.983364
0.987615
0.974303
0.98196
0.937797
0.885515
0.733107
0.304129
0.0387664
0.999877
0.999696
0.999578
0.999498
0.999443
0.999402
0.999368
0.999337
0.999306
0.999274
0.999241
0.999208
0.999175
0.999141
0.999107
0.999071
0.999035
0.998998
0.998959
0.998921
0.998881
0.998842
0.998802
0.998761
0.99872
0.998677
0.998632
0.998586
0.998538
0.998488
0.998437
0.998385
0.998332
0.998277
0.99822
0.998162
0.998103
0.998041
0.997979
0.997915
0.99785
0.997784
0.997716
0.997648
0.997578
0.997506
0.997433
0.997358
0.997282
0.997203
0.997121
0.997036
0.996948
0.996855
0.99676
0.996659
0.996555
0.996445
0.996329
0.996205
0.996074
0.995939
0.995806
0.995671
0.995527
0.995362
0.995185
0.995004
0.994818
0.994609
0.994373
0.99411
0.99384
0.993579
0.993346
0.993114
0.992833
0.992491
0.992124
0.991767
0.991401
0.991014
0.990611
0.990196
0.989739
0.989283
0.988671
0.988332
0.987177
0.987568
0.984025
0.987754
0.975425
0.983066
0.941627
0.892357
0.746311
0.316992
0.0402864
0.999887
0.999718
0.999607
0.999527
0.999472
0.999432
0.999398
0.999366
0.999335
0.999304
0.999272
0.99924
0.999207
0.999175
0.999141
0.999106
0.999069
0.999032
0.998994
0.998955
0.998916
0.998876
0.998837
0.998796
0.998754
0.998711
0.998667
0.998621
0.998573
0.998524
0.998473
0.998421
0.998368
0.998314
0.998257
0.998199
0.998139
0.998078
0.998015
0.997951
0.997886
0.997819
0.997751
0.997681
0.99761
0.997538
0.997464
0.997389
0.997312
0.997232
0.99715
0.997064
0.996976
0.996883
0.996788
0.996688
0.996584
0.996475
0.99636
0.996236
0.996107
0.995975
0.995846
0.995715
0.995571
0.995406
0.995232
0.995057
0.994876
0.994669
0.994433
0.994177
0.993916
0.993672
0.993456
0.993235
0.992953
0.99261
0.992255
0.991909
0.991557
0.991181
0.990788
0.990385
0.989945
0.989494
0.988921
0.988566
0.987503
0.9878
0.984671
0.987942
0.976515
0.984043
0.94537
0.89889
0.759055
0.330629
0.0417493
0.999896
0.999738
0.999628
0.999553
0.9995
0.99946
0.999426
0.999394
0.999363
0.999332
0.999301
0.99927
0.999239
0.999207
0.999174
0.999139
0.999103
0.999066
0.999028
0.998989
0.99895
0.99891
0.998871
0.99883
0.998789
0.998746
0.998701
0.998655
0.998608
0.998559
0.998508
0.998457
0.998404
0.99835
0.998294
0.998236
0.998176
0.998115
0.998052
0.997987
0.997921
0.997854
0.997785
0.997715
0.997644
0.997571
0.997496
0.99742
0.997342
0.997262
0.997179
0.997093
0.997004
0.996911
0.996816
0.996716
0.996613
0.996504
0.996389
0.996266
0.996138
0.99601
0.995885
0.995756
0.995611
0.995446
0.995276
0.995108
0.99493
0.994723
0.994489
0.994237
0.993986
0.993762
0.993568
0.99335
0.993061
0.992718
0.992379
0.992045
0.991706
0.99134
0.990957
0.990573
0.99014
0.989705
0.989167
0.988799
0.987821
0.988041
0.985255
0.988167
0.977568
0.984968
0.948915
0.90527
0.771553
0.344267
0.0433957
0.999905
0.999756
0.999651
0.999579
0.999526
0.999486
0.999452
0.99942
0.99939
0.99936
0.99933
0.9993
0.99927
0.999239
0.999206
0.999171
0.999136
0.999099
0.999061
0.999022
0.998983
0.998944
0.998904
0.998864
0.998822
0.99878
0.998735
0.998689
0.998642
0.998593
0.998543
0.998493
0.998441
0.998386
0.99833
0.998273
0.998213
0.998152
0.998089
0.998024
0.997958
0.99789
0.997821
0.99775
0.997678
0.997604
0.997529
0.997452
0.997373
0.997292
0.997208
0.997122
0.997032
0.996939
0.996844
0.996745
0.996641
0.996532
0.996417
0.996294
0.996169
0.996044
0.995923
0.995794
0.995647
0.995482
0.995316
0.995155
0.994978
0.994768
0.994535
0.994291
0.994055
0.993852
0.993674
0.993458
0.99316
0.992825
0.992497
0.992181
0.991849
0.991498
0.991123
0.990756
0.990338
0.989909
0.98941
0.989034
0.988136
0.98829
0.985807
0.988439
0.978601
0.985823
0.952347
0.911283
0.784114
0.358183
0.0450838
0.999773
0.999673
0.999603
0.999551
0.999511
0.999477
0.999445
0.999416
0.999386
0.999358
0.99933
0.9993
0.99927
0.999237
0.999203
0.999167
0.999131
0.999093
0.999055
0.999016
0.998977
0.998938
0.998897
0.998856
0.998813
0.998769
0.998723
0.998676
0.998628
0.998578
0.998528
0.998477
0.998422
0.998367
0.998309
0.99825
0.998188
0.998125
0.998061
0.997994
0.997926
0.997856
0.997785
0.997712
0.997638
0.997562
0.997484
0.997405
0.997323
0.997238
0.997151
0.997061
0.996968
0.996872
0.996772
0.996669
0.99656
0.996445
0.996322
0.996198
0.996078
0.995959
0.99583
0.995679
0.995514
0.995355
0.995199
0.995019
0.994807
0.994577
0.994341
0.994121
0.993945
0.993781
0.993554
0.993247
0.992926
0.992614
0.992315
0.991991
0.99165
0.991293
0.990929
0.990528
0.990118
0.989642
0.989274
0.988447
0.988551
0.986328
0.98876
0.979621
0.98665
0.955604
0.91728
0.796252
0.372479
0.0468768
0.999694
0.999626
0.999575
0.999534
0.9995
0.99947
0.999441
0.999413
0.999386
0.999358
0.999329
0.999299
0.999267
0.999233
0.999198
0.999162
0.999125
0.999087
0.999049
0.99901
0.998971
0.998931
0.998889
0.998846
0.998802
0.998757
0.99871
0.998662
0.998613
0.998564
0.998512
0.998458
0.998403
0.998346
0.998287
0.998225
0.998162
0.998097
0.998031
0.997962
0.997892
0.99782
0.997747
0.997672
0.997595
0.997517
0.997437
0.997354
0.997269
0.99718
0.99709
0.996997
0.996901
0.996801
0.996696
0.996587
0.996471
0.996349
0.996228
0.996111
0.995994
0.995861
0.995706
0.995544
0.995392
0.995238
0.995053
0.994838
0.994613
0.99439
0.994191
0.994041
0.99388
0.993636
0.993328
0.993022
0.992732
0.992441
0.992129
0.991795
0.991453
0.99111
0.990717
0.99033
0.989876
0.989512
0.988757
0.988822
0.986827
0.98911
0.98063
0.987439
0.958792
0.923063
0.808289
0.386939
0.048838
0.999557
0.999524
0.999494
0.999466
0.999439
0.999413
0.999386
0.999358
0.999328
0.999296
0.999263
0.999229
0.999193
0.999156
0.999119
0.999081
0.999043
0.999004
0.998964
0.998922
0.99888
0.998836
0.99879
0.998744
0.998697
0.998648
0.9986
0.998547
0.998494
0.998439
0.998383
0.998323
0.998262
0.998199
0.998134
0.998067
0.997999
0.997928
0.997856
0.997782
0.997707
0.99763
0.997551
0.997469
0.997386
0.997299
0.997211
0.99712
0.997026
0.996929
0.996829
0.996724
0.996614
0.996497
0.996376
0.996258
0.996145
0.996027
0.995888
0.995729
0.995572
0.995428
0.995271
0.995078
0.994865
0.994648
0.994439
0.994266
0.99414
0.993969
0.993704
0.993405
0.993117
0.992849
0.992565
0.992266
0.991944
0.991612
0.991281
0.990902
0.990536
0.99011
0.989761
0.989067
0.989105
0.987318
0.989442
0.981621
0.988175
0.961901
0.928682
0.820201
0.402022
0.0509374
0.999547
0.999518
0.999491
0.999465
0.999439
0.999413
0.999385
0.999356
0.999325
0.999293
0.999259
0.999224
0.999188
0.999152
0.999114
0.999077
0.999038
0.998998
0.998956
0.998914
0.99887
0.998825
0.998779
0.998732
0.998684
0.998636
0.998583
0.99853
0.998476
0.998418
0.998359
0.998298
0.998236
0.998171
0.998104
0.998035
0.997965
0.997892
0.997818
0.997742
0.997664
0.997585
0.997503
0.997418
0.997331
0.997242
0.99715
0.997056
0.996959
0.996857
0.996752
0.996641
0.996522
0.996404
0.99629
0.996178
0.996056
0.99591
0.995749
0.995602
0.995462
0.995296
0.995095
0.994886
0.994682
0.994494
0.994347
0.994238
0.994042
0.993761
0.993479
0.993219
0.992962
0.992684
0.992397
0.992083
0.991769
0.991453
0.991088
0.990743
0.990336
0.989999
0.989373
0.989393
0.98779
0.989782
0.982609
0.988875
0.964893
0.934168
0.832332
0.417305
0.0532664
0.999541
0.999514
0.99949
0.999465
0.99944
0.999413
0.999384
0.999354
0.999323
0.99929
0.999256
0.999221
0.999186
0.999149
0.999112
0.999073
0.999034
0.998992
0.99895
0.998907
0.998862
0.998817
0.99877
0.998723
0.998673
0.998618
0.998567
0.998512
0.998454
0.998395
0.998335
0.998273
0.998208
0.998141
0.998072
0.998002
0.997929
0.997855
0.997778
0.9977
0.997619
0.997536
0.997451
0.997364
0.997274
0.997182
0.997086
0.996988
0.996886
0.99678
0.996667
0.996548
0.996432
0.996322
0.996209
0.996081
0.995927
0.995769
0.995632
0.99549
0.995312
0.995109
0.994911
0.994721
0.994555
0.994436
0.994323
0.994088
0.993809
0.993553
0.993316
0.993067
0.992797
0.992518
0.992221
0.991925
0.991615
0.991267
0.990947
0.990572
0.99025
0.989685
0.98969
0.988277
0.990114
0.983593
0.989558
0.967791
0.939434
0.844506
0.43324
0.0557215
0.998706
0.998657
0.998606
0.998549
0.99849
0.998432
0.998373
0.99831
0.998245
0.998178
0.99811
0.998039
0.997966
0.997891
0.997814
0.997736
0.997655
0.997571
0.997486
0.997397
0.997307
0.997214
0.997118
0.997018
0.996915
0.996807
0.996693
0.996576
0.996463
0.996354
0.996236
0.996099
0.99594
0.995791
0.995661
0.995508
0.995318
0.99512
0.994939
0.994766
0.994626
0.994526
0.99438
0.994108
0.993854
0.993628
0.993405
0.993159
0.992902
0.992632
0.992347
0.992068
0.991768
0.991444
0.991145
0.990786
0.990486
0.989987
0.989994
0.988751
0.990452
0.984565
0.990214
0.970567
0.944588
0.856892
0.44987
0.0583301
0.99864
0.998586
0.998527
0.998471
0.99841
0.998346
0.998281
0.998215
0.998147
0.998077
0.998004
0.997928
0.997851
0.997772
0.997691
0.997607
0.997521
0.997432
0.99734
0.997246
0.99715
0.997049
0.996944
0.996836
0.99672
0.996604
0.996495
0.996383
0.996258
0.996112
0.995952
0.995818
0.995685
0.995515
0.995321
0.995137
0.994976
0.994817
0.994704
0.994592
0.998621
0.998567
0.998511
0.998448
0.998383
0.998319
0.998253
0.998185
0.998115
0.998042
0.997966
0.997889
0.99781
0.997728
0.997643
0.997557
0.997467
0.997375
0.99728
0.997182
0.99708
0.996974
0.996864
0.996747
0.996635
0.996525
0.996407
0.996274
0.996122
0.995968
0.995845
0.995695
0.995509
0.995326
0.995164
0.99502
0.994874
0.994775
0.998546
0.998487
0.998422
0.998359
0.998292
0.998223
0.998153
0.998079
0.998004
0.997927
0.997848
0.997766
0.997681
0.997593
0.997503
0.99741
0.997314
0.997215
0.997111
0.997005
0.996893
0.996777
0.996665
0.996552
0.996426
0.996286
0.996132
0.99599
0.995864
0.995688
0.995505
0.995343
0.995199
0.995063
0.994928
0.998523
0.998464
0.998402
0.998331
0.998264
0.998192
0.998118
0.998043
0.997967
0.997887
0.997804
0.997719
0.997631
0.99754
0.997446
0.997349
0.997248
0.997144
0.997037
0.996923
0.996807
0.996693
0.996573
0.99644
0.996298
0.996146
0.99601
0.998438
0.998374
0.998308
0.998233
0.998159
0.998085
0.99801
0.997927
0.997844
0.997758
0.997669
0.997577
0.997483
0.997385
0.997283
0.997178
0.99707
0.996956
0.996835
0.996718
0.996593
0.996457
0.996315
0.996167
0.998345
0.998276
0.998206
0.998133
0.998055
0.997969
0.997886
0.997798
0.997708
0.997616
0.997521
0.997422
0.99732
0.997214
0.997104
0.996989
0.998093
0.998014
0.997933
0.997841
0.99775
0.997658
0.997563
0.997463
0.99736
0.997253
0.997141
0.997025
0.997973
0.997887
0.9978
0.997708
0.997611
0.997511
0.997406
0.997298
0.997185
0.997068
0.977167
0.957237
0.926093
0.978721
0.980131
0.974973
0.95394
0.923889
0.903017
0.886445
0.814234
0.696411
0.60227
0.583328
0.63444
0.62918
0.555161
0.494827
0.465897
0.406772
0.247204
0.131755
0.982191
0.981592
0.981141
0.981005
0.980462
0.978893
0.977734
0.978976
0.972437
0.95013
0.921535
0.903171
0.880605
0.797378
0.682913
0.602604
0.598373
0.642364
0.608615
0.533169
0.481541
0.457933
0.447653
0.26287
0.154991
0.985196
0.984288
0.983402
0.982564
0.981798
0.981141
0.980612
0.980406
0.979801
0.978036
0.976694
0.977671
0.969469
0.945896
0.91906
0.902651
0.870359
0.77763
0.669258
0.605095
0.61416
0.640261
0.582677
0.51013
0.468025
0.451541
0.465725
0.269816
0.16682
0.988147
0.987439
0.986665
0.985833
0.984955
0.984043
0.983135
0.982263
0.981445
0.980717
0.9801
0.979807
0.979107
0.977108
0.975607
0.976248
0.966103
0.94136
0.916706
0.90071
0.854606
0.755418
0.65626
0.610028
0.627894
0.623981
0.552052
0.486785
0.454849
0.447067
0.465927
0.271161
0.154918
0.989547
0.989064
0.988516
0.987903
0.987217
0.986457
0.985635
0.984756
0.983834
0.982907
0.982
0.981136
0.980339
0.979633
0.979244
0.978418
0.97613
0.97451
0.974719
0.962363
0.936704
0.914525
0.896446
0.834727
0.731949
0.645124
0.617436
0.634934
0.597497
0.519264
0.464007
0.442836
0.445146
0.468392
0.273073
0.138801
0.990029
0.989677
0.989277
0.988813
0.988284
0.987691
0.987024
0.986282
0.985472
0.984599
0.983671
0.98273
0.981792
0.980883
0.980008
0.979216
0.97872
0.97774
0.975125
0.973426
0.97309
0.958289
0.932171
0.912458
0.888632
0.811254
0.708251
0.636911
0.625899
0.629157
0.562913
0.48563
0.442784
0.433482
0.445835
0.471819
0.274378
0.124874
0.990326
0.990052
0.989753
0.989414
0.989026
0.988582
0.988076
0.987509
0.986868
0.986149
0.985354
0.984489
0.98356
0.982605
0.981642
0.980684
0.979741
0.978855
0.978245
0.977087
0.974109
0.972389
0.971382
0.953945
0.927954
0.910249
0.875779
0.78431
0.685598
0.63224
0.631812
0.604926
0.521892
0.452925
0.424286
0.428824
0.449015
0.476127
0.275331
0.113758
0.9911
0.990821
0.990557
0.990302
0.990049
0.989781
0.98949
0.989164
0.988796
0.988377
0.987902
0.987363
0.986751
0.986058
0.985282
0.984427
0.983501
0.982535
0.981548
0.980547
0.979538
0.978559
0.977828
0.976472
0.973098
0.971426
0.969607
0.949456
0.924253
0.907264
0.856716
0.755022
0.665418
0.630747
0.628918
0.567019
0.47844
0.422921
0.410717
0.430197
0.454826
0.481628
0.275947
0.104995
0.992199
0.991843
0.991497
0.991165
0.990853
0.990561
0.990288
0.99003
0.989777
0.989517
0.98924
0.988935
0.988592
0.988203
0.98776
0.987255
0.986676
0.986009
0.985256
0.984415
0.983495
0.982523
0.981513
0.980475
0.979398
0.978327
0.977476
0.975898
0.972129
0.970543
0.967759
0.944927
0.921233
0.90241
0.832822
0.725018
0.648897
0.630135
0.609396
0.51996
0.43569
0.397833
0.405611
0.437422
0.463072
0.487708
0.276023
0.097855
0.993155
0.992778
0.992397
0.992015
0.991638
0.991271
0.990922
0.990597
0.990295
0.990017
0.989759
0.989514
0.989268
0.989009
0.988728
0.988416
0.98806
0.987654
0.987186
0.986641
0.986005
0.985276
0.984453
0.983539
0.982564
0.981538
0.980466
0.979321
0.978166
0.977187
0.975379
0.971196
0.969762
0.965823
0.940448
0.918713
0.894376
0.805061
0.695807
0.636604
0.625509
0.567836
0.467087
0.397103
0.381791
0.41143
0.450466
0.473925
0.494088
0.275292
0.091763
0.993793
0.993414
0.993022
0.992622
0.992216
0.991813
0.991416
0.991032
0.99067
0.990335
0.990028
0.989749
0.989497
0.989263
0.989034
0.9888
0.988547
0.988268
0.98795
0.987583
0.987155
0.986646
0.986043
0.985341
0.984537
0.983635
0.982661
0.981621
0.980515
0.979309
0.97807
0.976953
0.97489
0.970267
0.969048
0.963743
0.936023
0.916401
0.88174
0.773677
0.668858
0.627962
0.609182
0.517164
0.415672
0.367034
0.38044
0.42764
0.468202
0.486694
0.500248
0.273448
0.0863561
0.995321
0.996102
0.996462
0.996673
0.996786
0.996854
0.996891
0.996907
0.996907
0.996896
0.996873
0.996841
0.996801
0.996754
0.996703
0.996649
0.996593
0.996536
0.996482
0.99643
0.996385
0.996349
0.996323
0.996309
0.99631
0.996326
0.996357
0.996405
0.996469
0.996547
0.996638
0.996739
0.996839
0.99689
0.99686
0.996759
0.996605
0.996415
0.996195
0.995951
0.995686
0.995402
0.995099
0.994775
0.994432
0.994069
0.993685
0.993284
0.99287
0.992446
0.99202
0.991596