/*--------------------------------*- C++ -*----------------------------------*\
  =========                 |
  \\      /  F ield         | OpenFOAM: The Open Source CFD Toolbox
   \\    /   O peration     | Website:  https://openfoam.org
    \\  /    A nd           | Version:  9
     \\/     M anipulation  |
\*---------------------------------------------------------------------------*/
FoamFile
{
    format      ascii;
    class       volScalarField;
    location    "750";
    object      k;
}
// * * * * * * * * * * * * * * * * * * * * * * * * * * * * * * * * * * * * * //

dimensions      [0 2 -2 0 0 0 0];

internalField   nonuniform List<scalar> 
13538
(
8.90491e-06
9.74905e-07
3.73177e-06
4.22712e-06
4.42156e-06
4.64496e-06
4.88095e-06
5.12637e-06
5.38252e-06
5.64965e-06
5.92892e-06
6.22077e-06
6.52602e-06
6.84581e-06
7.18017e-06
7.53047e-06
7.89735e-06
8.28129e-06
8.68359e-06
9.10477e-06
9.54574e-06
1.00076e-05
1.04915e-05
1.09983e-05
1.15293e-05
1.20854e-05
1.26674e-05
1.3276e-05
1.39128e-05
1.45802e-05
1.52787e-05
1.60089e-05
1.67729e-05
1.75715e-05
1.84072e-05
1.92808e-05
2.01925e-05
2.11447e-05
2.2138e-05
2.31744e-05
2.42559e-05
2.53832e-05
2.65576e-05
2.77808e-05
2.90532e-05
3.03752e-05
3.17484e-05
3.31763e-05
3.46581e-05
3.61931e-05
3.77826e-05
3.94269e-05
4.1128e-05
4.28846e-05
4.46972e-05
4.65685e-05
4.84965e-05
5.04808e-05
5.25198e-05
5.46098e-05
5.67502e-05
5.89403e-05
6.11763e-05
6.34578e-05
6.57843e-05
6.81587e-05
7.05757e-05
7.30306e-05
7.55223e-05
7.80427e-05
8.05872e-05
8.31578e-05
8.5753e-05
8.83668e-05
9.10069e-05
9.36647e-05
9.63276e-05
9.89962e-05
0.000101684
0.000104382
0.000107071
0.000109753
0.0001124
0.000114968
0.000117494
0.000120048
0.000122662
0.000125301
0.000127931
0.000130519
0.000133045
0.000135482
0.000137891
0.00014033
0.000143268
0.000148526
0.000161286
0.000183335
0.000152257
1.17895e-05
8.76694e-07
4.17392e-06
4.87916e-06
5.08022e-06
5.31085e-06
5.55921e-06
5.81789e-06
6.08755e-06
6.3691e-06
6.66337e-06
6.97114e-06
7.293e-06
7.62977e-06
7.98231e-06
8.35133e-06
8.73762e-06
9.14206e-06
9.56532e-06
1.00084e-05
1.04722e-05
1.09575e-05
1.14653e-05
1.19965e-05
1.25521e-05
1.31332e-05
1.37408e-05
1.4376e-05
1.50403e-05
1.5734e-05
1.64585e-05
1.72153e-05
1.80053e-05
1.883e-05
1.96901e-05
2.0587e-05
2.15221e-05
2.24964e-05
2.35116e-05
2.45686e-05
2.56682e-05
2.68118e-05
2.80006e-05
2.92355e-05
3.05176e-05
3.18476e-05
3.32268e-05
3.46557e-05
3.61347e-05
3.76651e-05
3.92467e-05
4.08794e-05
4.25642e-05
4.4301e-05
4.60892e-05
4.79287e-05
4.98183e-05
5.17578e-05
5.37449e-05
5.57794e-05
5.786e-05
5.99852e-05
6.21535e-05
6.43609e-05
6.66107e-05
6.89071e-05
7.12437e-05
7.36099e-05
7.60064e-05
7.84275e-05
8.08745e-05
8.33516e-05
8.58568e-05
8.8381e-05
9.09221e-05
9.3477e-05
9.60455e-05
9.86293e-05
0.000101226
0.000103833
0.000106439
0.000109045
0.000111623
0.000114123
0.000116578
0.000119062
0.00012161
0.000124199
0.000126799
0.000129372
0.000131911
0.000134378
0.000136831
0.000139331
0.000142217
0.000146973
0.000158587
0.000181388
0.000156195
1.39204e-05
1.40513e-06
3.74836e-06
4.68622e-06
4.89228e-06
5.11262e-06
5.35758e-06
5.61337e-06
5.88006e-06
6.1586e-06
6.44978e-06
6.75437e-06
7.07308e-06
7.40666e-06
7.75592e-06
8.12165e-06
8.50461e-06
8.90558e-06
9.32544e-06
9.76499e-06
1.02252e-05
1.07069e-05
1.12111e-05
1.17387e-05
1.22908e-05
1.28684e-05
1.34725e-05
1.4104e-05
1.47643e-05
1.54546e-05
1.61758e-05
1.69292e-05
1.7716e-05
1.85375e-05
1.93948e-05
2.02893e-05
2.1222e-05
2.21942e-05
2.32071e-05
2.42621e-05
2.536e-05
2.65025e-05
2.76908e-05
2.89253e-05
3.02076e-05
3.15382e-05
3.29183e-05
3.43488e-05
3.583e-05
3.73627e-05
3.89476e-05
4.05844e-05
4.22741e-05
4.40164e-05
4.581e-05
4.76556e-05
4.95532e-05
5.15019e-05
5.34993e-05
5.55453e-05
5.76382e-05
5.97762e-05
6.19588e-05
6.41823e-05
6.64432e-05
6.87395e-05
7.107e-05
7.34296e-05
7.58181e-05
7.82277e-05
8.06639e-05
8.31338e-05
8.56296e-05
8.81399e-05
9.06583e-05
9.31935e-05
9.57536e-05
9.83253e-05
0.000100905
0.000103489
0.000106079
0.000108673
0.000111234
0.000113717
0.000116158
0.000118628
0.000121163
0.000123734
0.000126322
0.000128898
0.000131449
0.000133942
0.000136434
0.000138989
0.000141891
0.000146389
0.00015711
0.000179956
0.000159002
1.58175e-05
1.57649e-06
3.57293e-06
4.73614e-06
4.96533e-06
5.17962e-06
5.42561e-06
5.68359e-06
5.95234e-06
6.23293e-06
6.52614e-06
6.83273e-06
7.15349e-06
7.48913e-06
7.84046e-06
8.20821e-06
8.59319e-06
8.99621e-06
9.4181e-06
9.85972e-06
1.0322e-05
1.08058e-05
1.1312e-05
1.18416e-05
1.23957e-05
1.29752e-05
1.35812e-05
1.42148e-05
1.48771e-05
1.55691e-05
1.6292e-05
1.70472e-05
1.78357e-05
1.86587e-05
1.95175e-05
2.04131e-05
2.1347e-05
2.23204e-05
2.33343e-05
2.43901e-05
2.54889e-05
2.66319e-05
2.78204e-05
2.90547e-05
3.03366e-05
3.16667e-05
3.30462e-05
3.4476e-05
3.59559e-05
3.74869e-05
3.90697e-05
4.07041e-05
4.2391e-05
4.41305e-05
4.59211e-05
4.77627e-05
4.96558e-05
5.16001e-05
5.35934e-05
5.56337e-05
5.772e-05
5.98511e-05
6.20271e-05
6.4244e-05
6.64979e-05
6.8788e-05
7.11153e-05
7.34704e-05
7.58542e-05
7.82647e-05
8.06942e-05
8.31412e-05
8.56058e-05
8.8079e-05
9.05595e-05
9.30637e-05
9.55887e-05
9.81205e-05
0.000100659
0.00010321
0.000105774
0.000108333
0.000110862
0.00011332
0.000115732
0.000118166
0.000120671
0.000123221
0.000125794
0.000128362
0.000130907
0.000133405
0.000135918
0.00013852
0.000141442
0.000145749
0.000155585
0.000178392
0.000161632
1.74892e-05
1.72757e-06
3.32048e-06
4.7109e-06
4.97389e-06
5.17975e-06
5.4241e-06
5.6823e-06
5.95116e-06
6.23182e-06
6.52509e-06
6.83175e-06
7.15257e-06
7.48824e-06
7.83955e-06
8.20735e-06
8.59237e-06
8.99542e-06
9.41733e-06
9.85896e-06
1.03213e-05
1.08051e-05
1.13113e-05
1.1841e-05
1.23951e-05
1.29746e-05
1.35806e-05
1.42142e-05
1.48765e-05
1.55686e-05
1.62915e-05
1.70467e-05
1.78351e-05
1.8658e-05
1.95167e-05
2.04123e-05
2.13461e-05
2.23191e-05
2.33329e-05
2.43886e-05
2.54872e-05
2.66298e-05
2.78178e-05
2.9052e-05
3.03333e-05
3.16628e-05
3.30417e-05
3.44705e-05
3.59496e-05
3.748e-05
3.9062e-05
4.06954e-05
4.23808e-05
4.4119e-05
4.59083e-05
4.77492e-05
4.96405e-05
5.15821e-05
5.35733e-05
5.56121e-05
5.7698e-05
5.98271e-05
6.19999e-05
6.42138e-05
6.64664e-05
6.87559e-05
7.10803e-05
7.34309e-05
7.58105e-05
7.82164e-05
8.06448e-05
8.3092e-05
8.5555e-05
8.80293e-05
9.05144e-05
9.301e-05
9.55059e-05
9.80024e-05
0.000100506
0.000103024
0.000105551
0.000108071
0.000110574
0.000113013
0.000115398
0.000117802
0.000120282
0.000122812
0.000125368
0.000127921
0.000130464
0.000132967
0.00013549
0.000138118
0.000141051
0.000145235
0.000154262
0.000176867
0.000163865
1.89927e-05
2.03906e-06
3.06506e-06
4.68339e-06
4.99199e-06
5.19012e-06
5.43239e-06
5.69111e-06
5.96045e-06
6.24152e-06
6.5352e-06
6.84224e-06
7.16342e-06
7.49946e-06
7.85114e-06
8.21927e-06
8.60461e-06
9.00799e-06
9.43023e-06
9.87219e-06
1.03348e-05
1.08188e-05
1.13253e-05
1.18553e-05
1.24096e-05
1.29893e-05
1.35956e-05
1.42293e-05
1.48917e-05
1.55838e-05
1.63068e-05
1.70619e-05
1.78505e-05
1.86733e-05
1.95319e-05
2.04272e-05
2.13609e-05
2.23338e-05
2.3347e-05
2.4402e-05
2.55001e-05
2.66421e-05
2.78294e-05
2.90625e-05
3.03429e-05
3.16713e-05
3.3049e-05
3.44765e-05
3.59537e-05
3.74822e-05
3.90626e-05
4.06945e-05
4.23778e-05
4.41133e-05
4.59004e-05
4.77382e-05
4.96267e-05
5.15661e-05
5.35544e-05
5.55897e-05
5.76717e-05
5.97977e-05
6.19674e-05
6.41775e-05
6.64268e-05
6.87102e-05
7.10308e-05
7.33795e-05
7.57543e-05
7.81563e-05
8.05798e-05
8.30221e-05
8.54829e-05
8.79541e-05
9.0434e-05
9.29249e-05
9.54196e-05
9.79194e-05
0.000100419
0.000102914
0.000105404
0.00010789
0.000110362
0.000112764
0.000115119
0.000117503
0.000119954
0.000122455
0.000124989
0.000127527
0.00013007
0.000132579
0.000135099
0.000137744
0.000140683
0.000144797
0.000153099
0.000175365
0.000165978
2.03581e-05
2.7419e-07
2.79857e-06
4.63961e-06
5.00542e-06
5.19654e-06
5.43569e-06
5.69458e-06
5.9642e-06
6.24539e-06
6.53917e-06
6.84631e-06
7.16756e-06
7.50368e-06
7.85542e-06
8.22355e-06
8.60889e-06
9.01224e-06
9.43444e-06
9.87634e-06
1.03388e-05
1.08228e-05
1.13292e-05
1.1859e-05
1.24131e-05
1.29926e-05
1.35986e-05
1.4232e-05
1.4894e-05
1.55858e-05
1.63084e-05
1.70631e-05
1.78511e-05
1.86733e-05
1.95311e-05
2.04259e-05
2.13588e-05
2.23307e-05
2.3343e-05
2.4397e-05
2.54941e-05
2.66347e-05
2.78203e-05
2.90521e-05
3.03312e-05
3.16583e-05
3.3034e-05
3.44593e-05
3.59347e-05
3.7461e-05
3.90391e-05
4.06683e-05
4.23489e-05
4.40812e-05
4.58653e-05
4.77007e-05
4.95865e-05
5.15232e-05
5.35076e-05
5.55386e-05
5.76169e-05
5.97401e-05
6.19073e-05
6.41139e-05
6.6359e-05
6.86395e-05
7.09547e-05
7.32989e-05
7.56722e-05
7.80703e-05
8.04916e-05
8.29287e-05
8.53834e-05
8.78507e-05
9.03276e-05
9.28154e-05
9.53082e-05
9.78017e-05
0.000100297
0.000102793
0.000105287
0.000107768
0.000110216
0.000112583
0.000114904
0.000117253
0.000119674
0.00012216
0.000124676
0.000127199
0.000129732
0.000132232
0.000134759
0.000137419
0.000140347
0.000144406
0.000152042
0.000173887
0.000167796
2.16103e-05
9.18706e-07
2.52769e-06
4.58077e-06
5.01569e-06
5.20118e-06
5.43628e-06
5.69508e-06
5.96482e-06
6.24602e-06
6.53977e-06
6.84685e-06
7.16801e-06
7.50402e-06
7.85561e-06
8.22359e-06
8.60874e-06
9.01187e-06
9.43382e-06
9.87544e-06
1.03376e-05
1.08212e-05
1.13272e-05
1.18566e-05
1.24102e-05
1.29892e-05
1.35947e-05
1.42275e-05
1.48889e-05
1.55799e-05
1.63018e-05
1.70556e-05
1.78426e-05
1.86639e-05
1.95208e-05
2.04144e-05
2.13459e-05
2.23166e-05
2.33277e-05
2.43802e-05
2.54754e-05
2.66144e-05
2.77981e-05
2.90281e-05
3.0305e-05
3.16297e-05
3.30031e-05
3.44259e-05
3.58989e-05
3.74225e-05
3.89976e-05
4.06236e-05
4.23016e-05
4.40312e-05
4.58116e-05
4.76434e-05
4.9525e-05
5.14572e-05
5.34384e-05
5.54669e-05
5.75411e-05
5.96605e-05
6.18233e-05
6.40248e-05
6.62667e-05
6.85428e-05
7.08539e-05
7.31951e-05
7.55626e-05
7.79555e-05
8.03733e-05
8.28068e-05
8.52553e-05
8.77197e-05
9.01959e-05
9.26817e-05
9.51687e-05
9.76593e-05
0.000100153
0.000102646
0.000105138
0.000107614
0.000110064
0.000112442
0.000114751
0.00011706
0.000119445
0.000121901
0.000124401
0.000126914
0.000129437
0.00013194
0.000134466
0.000137127
0.000140044
0.000144073
0.000151129
0.000172444
0.000169596
2.27707e-05
1.81473e-06
2.2394e-06
4.50869e-06
5.02199e-06
5.20373e-06
5.43387e-06
5.69224e-06
5.96199e-06
6.24302e-06
6.53657e-06
6.84344e-06
7.16431e-06
7.50002e-06
7.85129e-06
8.21888e-06
8.60361e-06
9.00628e-06
9.42774e-06
9.86882e-06
1.03304e-05
1.08134e-05
1.13187e-05
1.18474e-05
1.24003e-05
1.29785e-05
1.3583e-05
1.42148e-05
1.48753e-05
1.55653e-05
1.6286e-05
1.70386e-05
1.78243e-05
1.86442e-05
1.94995e-05
2.03914e-05
2.13213e-05
2.22903e-05
2.32995e-05
2.435e-05
2.54432e-05
2.65799e-05
2.77614e-05
2.8989e-05
3.02633e-05
3.15852e-05
3.29559e-05
3.43753e-05
3.58451e-05
3.73654e-05
3.89376e-05
4.05602e-05
4.22343e-05
4.396e-05
4.57371e-05
4.7565e-05
4.94424e-05
5.13704e-05
5.33464e-05
5.53705e-05
5.74416e-05
5.95559e-05
6.17126e-05
6.391e-05
6.61478e-05
6.84204e-05
7.07267e-05
7.30633e-05
7.54272e-05
7.7817e-05
8.02297e-05
8.26596e-05
8.51058e-05
8.75655e-05
9.00361e-05
9.25169e-05
9.50031e-05
9.74902e-05
9.99797e-05
0.00010247
0.000104958
0.000107437
0.000109889
0.000112267
0.000114582
0.000116901
0.000119273
0.000121696
0.000124166
0.00012666
0.000129179
0.000131683
0.000134212
0.000136871
0.000139768
0.000143772
0.000150325
0.000171018
0.000171017
2.38477e-05
3.89973e-07
1.93892e-06
4.42264e-06
5.02386e-06
5.20424e-06
5.42853e-06
5.68607e-06
5.95571e-06
6.23645e-06
6.52962e-06
6.83605e-06
7.15648e-06
7.4917e-06
7.84242e-06
8.20942e-06
8.59353e-06
8.99552e-06
9.41624e-06
9.85654e-06
1.03173e-05
1.07994e-05
1.13038e-05
1.18314e-05
1.23832e-05
1.29603e-05
1.35636e-05
1.41942e-05
1.48532e-05
1.55417e-05
1.62609e-05
1.70119e-05
1.77959e-05
1.8614e-05
1.94675e-05
2.03574e-05
2.12851e-05
2.22517e-05
2.32585e-05
2.43068e-05
2.53972e-05
2.65313e-05
2.77099e-05
2.8934e-05
3.02055e-05
3.15241e-05
3.28914e-05
3.43076e-05
3.57736e-05
3.729e-05
3.88583e-05
4.0477e-05
4.21468e-05
4.3868e-05
4.56406e-05
4.74639e-05
4.93363e-05
5.126e-05
5.32315e-05
5.52507e-05
5.73157e-05
5.9426e-05
6.15784e-05
6.37715e-05
6.60047e-05
6.82713e-05
7.05718e-05
7.29063e-05
7.52665e-05
7.76489e-05
8.00563e-05
8.24824e-05
8.49255e-05
8.73815e-05
8.98482e-05
9.23253e-05
9.48073e-05
9.72925e-05
9.978e-05
0.000102269
0.000104757
0.000107235
0.000109685
0.000112064
0.000114384
0.000116705
0.000119079
0.000121517
0.000123983
0.000126452
0.00012895
0.000131451
0.000133984
0.000136635
0.000139513
0.000143486
0.000149636
0.00016964
0.0001725
2.48566e-05
1.50495e-06
1.64049e-06
4.31957e-06
5.02087e-06
5.2026e-06
5.42031e-06
5.67658e-06
5.94595e-06
6.22625e-06
6.51887e-06
6.82472e-06
7.14451e-06
7.47901e-06
7.82899e-06
8.19521e-06
8.57846e-06
8.97953e-06
9.39928e-06
9.83855e-06
1.02982e-05
1.07791e-05
1.12823e-05
1.18086e-05
1.2359e-05
1.29346e-05
1.35364e-05
1.41654e-05
1.48227e-05
1.55095e-05
1.62267e-05
1.69757e-05
1.77575e-05
1.85734e-05
1.94244e-05
2.03119e-05
2.12371e-05
2.22012e-05
2.3205e-05
2.42499e-05
2.53376e-05
2.64684e-05
2.76437e-05
2.88645e-05
3.01319e-05
3.14466e-05
3.28099e-05
3.42219e-05
3.56841e-05
3.71963e-05
3.87597e-05
4.03736e-05
4.20384e-05
4.37545e-05
4.55222e-05
4.73413e-05
4.92093e-05
5.11278e-05
5.3093e-05
5.51068e-05
5.71667e-05
5.92724e-05
6.14195e-05
6.36061e-05
6.58328e-05
6.80961e-05
7.03904e-05
7.27188e-05
7.50753e-05
7.74548e-05
7.98573e-05
8.22778e-05
8.47157e-05
8.71687e-05
8.96338e-05
9.21055e-05
9.45837e-05
9.70681e-05
9.95516e-05
0.000102039
0.000104526
0.000107003
0.000109452
0.000111835
0.000114159
0.000116481
0.000118865
0.000121308
0.000123786
0.000126261
0.000128749
0.000131243
0.000133774
0.000136427
0.000139295
0.000143223
0.000149022
0.000168319
0.000173872
2.58002e-05
2.75827e-07
1.30874e-06
4.20612e-06
5.01257e-06
5.19877e-06
5.40923e-06
5.66374e-06
5.9327e-06
6.21241e-06
6.50432e-06
6.80938e-06
7.12833e-06
7.46196e-06
7.81099e-06
8.17616e-06
8.55834e-06
8.95829e-06
9.37682e-06
9.81481e-06
1.02731e-05
1.07526e-05
1.12542e-05
1.17789e-05
1.23277e-05
1.29015e-05
1.35014e-05
1.41285e-05
1.47837e-05
1.54682e-05
1.61832e-05
1.69298e-05
1.7709e-05
1.85223e-05
1.93706e-05
2.02551e-05
2.11772e-05
2.21381e-05
2.31387e-05
2.41802e-05
2.5264e-05
2.63911e-05
2.75622e-05
2.87791e-05
3.00427e-05
3.13531e-05
3.27118e-05
3.41192e-05
3.55764e-05
3.70831e-05
3.86415e-05
4.02503e-05
4.19101e-05
4.36212e-05
4.53826e-05
4.71955e-05
4.90576e-05
5.09702e-05
5.29302e-05
5.49392e-05
5.69931e-05
5.90924e-05
6.12329e-05
6.34141e-05
6.56356e-05
6.78941e-05
7.01845e-05
7.25069e-05
7.48567e-05
7.72308e-05
7.96295e-05
8.20465e-05
8.44819e-05
8.69293e-05
8.93875e-05
9.18557e-05
9.4332e-05
9.68139e-05
9.92982e-05
0.000101783
0.000104267
0.000106744
0.000109196
0.000111577
0.000113905
0.000116235
0.000118622
0.000121076
0.00012357
0.000126063
0.000128568
0.000131061
0.000133587
0.000136237
0.000139089
0.00014297
0.000148488
0.000167074
0.000175014
2.66878e-05
1.67451e-06
9.87219e-07
4.07301e-06
4.99866e-06
5.19267e-06
5.39531e-06
5.64755e-06
5.91595e-06
6.19491e-06
6.48593e-06
6.79005e-06
7.10799e-06
7.44049e-06
7.78835e-06
8.15233e-06
8.5332e-06
8.93176e-06
9.34885e-06
9.7853e-06
1.0242e-05
1.07198e-05
1.12196e-05
1.17424e-05
1.22892e-05
1.28609e-05
1.34586e-05
1.40833e-05
1.47361e-05
1.54181e-05
1.61303e-05
1.68741e-05
1.76504e-05
1.84606e-05
1.93057e-05
2.0187e-05
2.11053e-05
2.20624e-05
2.30592e-05
2.40968e-05
2.51765e-05
2.62992e-05
2.74663e-05
2.86785e-05
2.9937e-05
3.12423e-05
3.25961e-05
3.39983e-05
3.54503e-05
3.69514e-05
3.85036e-05
4.01068e-05
4.17602e-05
4.34654e-05
4.52215e-05
4.70284e-05
4.88841e-05
5.07902e-05
5.27439e-05
5.47459e-05
5.6793e-05
5.88855e-05
6.10221e-05
6.31983e-05
6.5412e-05
6.76621e-05
6.99471e-05
7.22651e-05
7.46093e-05
7.69778e-05
7.93707e-05
8.17842e-05
8.42165e-05
8.66594e-05
8.91141e-05
9.15792e-05
9.40531e-05
9.65328e-05
9.90135e-05
0.000101499
0.000103985
0.000106462
0.000108914
0.000111297
0.000113624
0.000115954
0.000118352
0.000120818
0.000123329
0.000125843
0.000128366
0.000130885
0.000133429
0.000136066
0.000138899
0.000142727
0.000148026
0.000165904
0.000176166
2.75224e-05
4.72295e-07
6.29921e-07
3.92718e-06
4.9785e-06
5.1843e-06
5.37864e-06
5.62803e-06
5.89564e-06
6.17373e-06
6.4637e-06
6.76668e-06
7.08342e-06
7.41463e-06
7.76113e-06
8.12366e-06
8.50301e-06
8.89995e-06
9.31532e-06
9.74999e-06
1.02048e-05
1.06806e-05
1.11783e-05
1.1699e-05
1.22434e-05
1.28127e-05
1.34079e-05
1.40299e-05
1.46799e-05
1.5359e-05
1.60682e-05
1.68088e-05
1.75817e-05
1.83883e-05
1.92297e-05
2.01071e-05
2.10216e-05
2.19746e-05
2.29672e-05
2.40003e-05
2.50753e-05
2.61932e-05
2.73549e-05
2.85619e-05
2.98151e-05
3.1115e-05
3.2463e-05
3.38593e-05
3.53052e-05
3.68004e-05
3.8346e-05
3.99426e-05
4.15897e-05
4.3289e-05
4.50379e-05
4.68375e-05
4.86861e-05
5.05855e-05
5.25337e-05
5.45289e-05
5.65689e-05
5.86547e-05
6.07831e-05
6.29519e-05
6.51612e-05
6.74064e-05
6.96838e-05
7.19941e-05
7.43343e-05
7.66982e-05
7.90854e-05
8.14946e-05
8.39196e-05
8.6359e-05
8.88117e-05
9.12732e-05
9.37456e-05
9.62249e-05
9.87016e-05
0.000101188
0.000103672
0.000106147
0.000108598
0.000110987
0.000113321
0.000115655
0.00011806
0.000120536
0.000123061
0.000125595
0.000128142
0.000130689
0.000133262
0.000135912
0.000138731
0.000142502
0.000147622
0.000164817
0.000177055
2.83135e-05
2.10089e-06
2.5635e-07
3.7618e-06
4.95223e-06
5.17354e-06
5.35922e-06
5.60514e-06
5.87178e-06
6.14885e-06
6.43758e-06
6.73924e-06
7.05461e-06
7.38438e-06
7.7293e-06
8.09017e-06
8.46774e-06
8.86283e-06
9.27627e-06
9.70891e-06
1.01616e-05
1.06351e-05
1.11304e-05
1.16486e-05
1.21904e-05
1.2757e-05
1.33492e-05
1.39683e-05
1.46151e-05
1.52909e-05
1.59966e-05
1.67336e-05
1.75027e-05
1.83054e-05
1.91428e-05
2.00158e-05
2.09259e-05
2.18741e-05
2.28619e-05
2.389e-05
2.49596e-05
2.60721e-05
2.72284e-05
2.84299e-05
2.9677e-05
3.09708e-05
3.23125e-05
3.37024e-05
3.51415e-05
3.66297e-05
3.81685e-05
3.97586e-05
4.13984e-05
4.30899e-05
4.48317e-05
4.66239e-05
4.84656e-05
5.03572e-05
5.22972e-05
5.42853e-05
5.63183e-05
5.83972e-05
6.05195e-05
6.26795e-05
6.48807e-05
6.71186e-05
6.93907e-05
7.16951e-05
7.40288e-05
7.63888e-05
7.87707e-05
8.11752e-05
8.35959e-05
8.60297e-05
8.84813e-05
9.09394e-05
9.3404e-05
9.58828e-05
9.83603e-05
0.00010084
0.000103326
0.000105808
0.000108258
0.000110645
0.000112983
0.000115327
0.000117736
0.000120224
0.000122767
0.000125325
0.000127899
0.00013047
0.000133069
0.000135748
0.000138572
0.000142275
0.000147254
0.000163817
0.000177913
2.90618e-05
8.69017e-07
4.37574e-07
3.58562e-06
4.91751e-06
5.16017e-06
5.3371e-06
5.57895e-06
5.8444e-06
6.1203e-06
6.40765e-06
6.70781e-06
7.02157e-06
7.34966e-06
7.69281e-06
8.05181e-06
8.42744e-06
8.82045e-06
9.23167e-06
9.66196e-06
1.01122e-05
1.05832e-05
1.10759e-05
1.15913e-05
1.21302e-05
1.26936e-05
1.32827e-05
1.38984e-05
1.45417e-05
1.52138e-05
1.59157e-05
1.66486e-05
1.74135e-05
1.82118e-05
1.90446e-05
1.9913e-05
2.08181e-05
2.17613e-05
2.27436e-05
2.37662e-05
2.483e-05
2.59367e-05
2.70868e-05
2.82817e-05
2.95225e-05
3.081e-05
3.21447e-05
3.35273e-05
3.49595e-05
3.64402e-05
3.79716e-05
3.95536e-05
4.11858e-05
4.28691e-05
4.4603e-05
4.63877e-05
4.82216e-05
5.01053e-05
5.20375e-05
5.40169e-05
5.60428e-05
5.81129e-05
6.02272e-05
6.23812e-05
6.45749e-05
6.68063e-05
6.90719e-05
7.13677e-05
7.36944e-05
7.6049e-05
7.84254e-05
8.08229e-05
8.324e-05
8.56713e-05
8.81162e-05
9.05739e-05
9.30377e-05
9.55127e-05
9.79889e-05
0.00010047
0.000102953
0.000105435
0.000107885
0.000110276
0.000112617
0.000114964
0.000117385
0.000119881
0.000122443
0.000125023
0.000127618
0.000130226
0.000132867
0.000135583
0.000138424
0.000142066
0.000146924
0.000162867
0.000178844
2.97665e-05
2.79865e-06
1.5279e-07
3.42589e-06
4.87039e-06
5.14366e-06
5.31228e-06
5.54938e-06
5.81344e-06
6.08808e-06
6.37389e-06
6.67236e-06
6.98432e-06
7.31055e-06
7.65172e-06
8.0086e-06
8.382e-06
8.77269e-06
9.18151e-06
9.60925e-06
1.00568e-05
1.0525e-05
1.10147e-05
1.1527e-05
1.20626e-05
1.26227e-05
1.32082e-05
1.38202e-05
1.44596e-05
1.51276e-05
1.58253e-05
1.65537e-05
1.73142e-05
1.81076e-05
1.89354e-05
1.97985e-05
2.06982e-05
2.16357e-05
2.26122e-05
2.36288e-05
2.46865e-05
2.57866e-05
2.69302e-05
2.81182e-05
2.93515e-05
3.06312e-05
3.19585e-05
3.33336e-05
3.4758e-05
3.6231e-05
3.77542e-05
3.93278e-05
4.09521e-05
4.2627e-05
4.43522e-05
4.61275e-05
4.79527e-05
4.98277e-05
5.17511e-05
5.37224e-05
5.57395e-05
5.78016e-05
5.99069e-05
6.20536e-05
6.42399e-05
6.64633e-05
6.87214e-05
7.10128e-05
7.33339e-05
7.56808e-05
7.80498e-05
8.04412e-05
8.28519e-05
8.52817e-05
8.7724e-05
9.01766e-05
9.2636e-05
9.51089e-05
9.75843e-05
0.000100064
0.000102545
0.000105024
0.000107476
0.000109871
0.000112218
0.000114576
0.000117003
0.000119513
0.000122092
0.000124697
0.000127325
0.000129966
0.000132648
0.0001354
0.000138262
0.000141862
0.000146627
0.000161953
0.000179465
3.04369e-05
1.60971e-06
1.31371e-07
3.24862e-06
4.81624e-06
5.12402e-06
5.28482e-06
5.51645e-06
5.77888e-06
6.05211e-06
6.33619e-06
6.63281e-06
6.94285e-06
7.26696e-06
7.60589e-06
7.96049e-06
8.33148e-06
8.71962e-06
9.12574e-06
9.55064e-06
9.99523e-06
1.04603e-05
1.09468e-05
1.14557e-05
1.19877e-05
1.2544e-05
1.31256e-05
1.37335e-05
1.43686e-05
1.50322e-05
1.57252e-05
1.64489e-05
1.72043e-05
1.79927e-05
1.8815e-05
1.96724e-05
2.05661e-05
2.14975e-05
2.24676e-05
2.34777e-05
2.45288e-05
2.56218e-05
2.67579e-05
2.79385e-05
2.91645e-05
3.04363e-05
3.17554e-05
3.3122e-05
3.45379e-05
3.60025e-05
3.75171e-05
3.90818e-05
4.06966e-05
4.23617e-05
4.40775e-05
4.5844e-05
4.76597e-05
4.95263e-05
5.14404e-05
5.34021e-05
5.54094e-05
5.74638e-05
5.95604e-05
6.16987e-05
6.38764e-05
6.60924e-05
6.83413e-05
7.06239e-05
7.29377e-05
7.52788e-05
7.76417e-05
8.00298e-05
8.24358e-05
8.48586e-05
8.72946e-05
8.97444e-05
9.22047e-05
9.46741e-05
9.71476e-05
9.96267e-05
0.00010211
0.000104588
0.00010704
0.000109439
0.000111791
0.000114154
0.000116592
0.000119113
0.000121706
0.000124339
0.000127002
0.000129682
0.000132405
0.000135208
0.000138101
0.00014166
0.00014636
0.000161171
0.000180218
3.10712e-05
5.40221e-07
2.82306e-07
3.09121e-06
4.75301e-06
5.10132e-06
5.25516e-06
5.48026e-06
5.74062e-06
6.01233e-06
6.29456e-06
6.58912e-06
6.89695e-06
7.2188e-06
7.55536e-06
7.90741e-06
8.27571e-06
8.66104e-06
9.06422e-06
9.48604e-06
9.92741e-06
1.03891e-05
1.0872e-05
1.13771e-05
1.19053e-05
1.24576e-05
1.30349e-05
1.36383e-05
1.42688e-05
1.49276e-05
1.56155e-05
1.63339e-05
1.7084e-05
1.78668e-05
1.86833e-05
1.95348e-05
2.04223e-05
2.13469e-05
2.23101e-05
2.33129e-05
2.43567e-05
2.54423e-05
2.65706e-05
2.77429e-05
2.89603e-05
3.02237e-05
3.15343e-05
3.28922e-05
3.42986e-05
3.57543e-05
3.72592e-05
3.88139e-05
4.04189e-05
4.20748e-05
4.37811e-05
4.55379e-05
4.73434e-05
4.91995e-05
5.11029e-05
5.30552e-05
5.50535e-05
5.70976e-05
5.91854e-05
6.13143e-05
6.34832e-05
6.56911e-05
6.79338e-05
7.02091e-05
7.25134e-05
7.48473e-05
7.72056e-05
7.95851e-05
8.19847e-05
8.44039e-05
8.68381e-05
8.92821e-05
9.17374e-05
9.4205e-05
9.6679e-05
9.91579e-05
0.000101639
0.00010412
0.000106572
0.000108977
0.000111334
0.000113704
0.000116146
0.00011868
0.000121296
0.000123962
0.00012666
0.000129378
0.000132147
0.000135004
0.000137934
0.000141473
0.000146116
0.000160396
0.000180669
3.16729e-05
2.58452e-06
6.62708e-08
2.93761e-06
4.68345e-06
5.07603e-06
5.22408e-06
5.44141e-06
5.6988e-06
5.96871e-06
6.24892e-06
6.54126e-06
6.84675e-06
7.16612e-06
7.50007e-06
7.84936e-06
8.21478e-06
8.59713e-06
8.99715e-06
9.41565e-06
9.85347e-06
1.03115e-05
1.07907e-05
1.12918e-05
1.18158e-05
1.23637e-05
1.29364e-05
1.35351e-05
1.41606e-05
1.48142e-05
1.54968e-05
1.62095e-05
1.69535e-05
1.77299e-05
1.85402e-05
1.93852e-05
2.0266e-05
2.11835e-05
2.21395e-05
2.31346e-05
2.41704e-05
2.52479e-05
2.63677e-05
2.75315e-05
2.87401e-05
2.99943e-05
3.12953e-05
3.26437e-05
3.40406e-05
3.54861e-05
3.69809e-05
3.85253e-05
4.01203e-05
4.17656e-05
4.34607e-05
4.52071e-05
4.70018e-05
4.88469e-05
5.07397e-05
5.26819e-05
5.46701e-05
5.67041e-05
5.87811e-05
6.09012e-05
6.30593e-05
6.52585e-05
6.74921e-05
6.97584e-05
7.2056e-05
7.4383e-05
7.67336e-05
7.91099e-05
8.15046e-05
8.39156e-05
8.63429e-05
8.87881e-05
9.12471e-05
9.37149e-05
9.61841e-05
9.86609e-05
0.000101143
0.000103625
0.000106079
0.00010849
0.000110855
0.000113227
0.000115677
0.000118227
0.00012086
0.000123549
0.000126285
0.000129056
0.000131869
0.000134787
0.000137764
0.000141294
0.000145896
0.000159689
0.000181313
3.22462e-05
1.38593e-06
3.62033e-07
2.77754e-06
4.60695e-06
5.04791e-06
5.1921e-06
5.40081e-06
5.65412e-06
5.92169e-06
6.19972e-06
6.48976e-06
6.79275e-06
7.10946e-06
7.44065e-06
7.78705e-06
8.14939e-06
8.52854e-06
8.9252e-06
9.34019e-06
9.77433e-06
1.02285e-05
1.07037e-05
1.12006e-05
1.17202e-05
1.22636e-05
1.28315e-05
1.34252e-05
1.40455e-05
1.46936e-05
1.53708e-05
1.60772e-05
1.6814e-05
1.7583e-05
1.8386e-05
1.92239e-05
2.00975e-05
2.10077e-05
2.19559e-05
2.2943e-05
2.39702e-05
2.50388e-05
2.61496e-05
2.73043e-05
2.85034e-05
2.97476e-05
3.10387e-05
3.23768e-05
3.37632e-05
3.51981e-05
3.66824e-05
3.8216e-05
3.97997e-05
4.14334e-05
4.31171e-05
4.48519e-05
4.66354e-05
4.84702e-05
5.03518e-05
5.22823e-05
5.42587e-05
5.62828e-05
5.83493e-05
6.04598e-05
6.26084e-05
6.47963e-05
6.70197e-05
6.92772e-05
7.15663e-05
7.38863e-05
7.62321e-05
7.85998e-05
8.0984e-05
8.33927e-05
8.58248e-05
8.82699e-05
9.07263e-05
9.31905e-05
9.56613e-05
9.81373e-05
0.000100621
0.000103101
0.000105563
0.000107977
0.000110348
0.000112731
0.000115181
0.00011774
0.000120388
0.000123108
0.000125879
0.000128701
0.000131569
0.000134551
0.000137579
0.000141117
0.000145675
0.000158969
0.000181843
2.697e-07
1.22683e-07
2.63535e-06
4.51961e-06
5.01379e-06
5.15845e-06
5.3589e-06
5.60768e-06
5.87243e-06
6.14795e-06
6.4355e-06
6.73593e-06
7.04992e-06
7.37823e-06
7.72163e-06
8.0808e-06
8.4566e-06
8.84976e-06
9.26115e-06
9.69149e-06
1.01417e-05
1.06126e-05
1.11052e-05
1.16203e-05
1.21589e-05
1.27218e-05
1.33103e-05
1.39252e-05
1.45676e-05
1.52391e-05
1.59387e-05
1.66675e-05
1.74281e-05
1.82222e-05
1.90513e-05
1.99165e-05
2.08186e-05
2.17588e-05
2.27374e-05
2.37557e-05
2.48152e-05
2.59163e-05
2.70611e-05
2.82502e-05
2.94843e-05
3.07646e-05
3.20917e-05
3.34668e-05
3.48906e-05
3.6363e-05
3.78844e-05
3.94565e-05
4.10791e-05
4.2751e-05
4.44735e-05
4.62452e-05
4.80668e-05
4.99363e-05
5.18556e-05
5.38211e-05
5.58331e-05
5.78875e-05
5.99862e-05
6.21248e-05
6.43025e-05
6.65158e-05
6.87632e-05
7.10446e-05
7.33563e-05
7.56922e-05
7.80546e-05
8.04348e-05
8.28435e-05
8.5282e-05
8.77279e-05
9.01796e-05
9.2639e-05
9.51081e-05
9.75805e-05
0.000100066
0.000102548
0.000105011
0.000107435
0.000109812
0.0001122
0.000114653
0.000117217
0.000119885
0.000122633
0.000125441
0.000128314
0.000131242
0.000134296
0.000137381
0.000140938
0.000145472
0.000158233
0.00018237
4.12741e-07
2.48483e-06
4.41762e-06
4.97202e-06
5.12117e-06
5.31447e-06
5.55963e-06
5.82172e-06
6.09455e-06
6.37942e-06
6.67714e-06
6.98828e-06
7.31358e-06
7.65381e-06
8.00967e-06
8.38199e-06
8.77151e-06
9.17901e-06
9.60535e-06
1.00513e-05
1.05178e-05
1.10058e-05
1.1516e-05
1.20496e-05
1.26073e-05
1.31902e-05
1.37994e-05
1.44357e-05
1.5101e-05
1.5793e-05
1.65146e-05
1.72669e-05
1.80508e-05
1.88691e-05
1.97244e-05
2.06173e-05
2.15484e-05
2.25177e-05
2.35268e-05
2.45768e-05
2.56678e-05
2.68021e-05
2.79803e-05
2.92033e-05
3.04724e-05
3.1788e-05
3.31514e-05
3.45625e-05
3.60229e-05
3.75325e-05
3.9092e-05
4.07016e-05
4.23606e-05
4.40702e-05
4.583e-05
4.76387e-05
4.94961e-05
5.14014e-05
5.33541e-05
5.53533e-05
5.73963e-05
5.94839e-05
6.16093e-05
6.37748e-05
6.59793e-05
6.82176e-05
7.04893e-05
7.27922e-05
7.51229e-05
7.74756e-05
7.98515e-05
8.22711e-05
8.47169e-05
8.71564e-05
8.95987e-05
9.20509e-05
9.45168e-05
9.69911e-05
9.94773e-05
0.000101962
0.000104424
0.000106848
0.000109233
0.000111623
0.000114083
0.000116658
0.000119339
0.000122114
0.000124959
0.000127881
0.000130869
0.000134014
0.00013717
0.000140763
0.000145276
0.000157517
0.000182955
4.92312e-06
5.07869e-06
5.26554e-06
5.50836e-06
5.76852e-06
6.03858e-06
6.32054e-06
6.61528e-06
6.92334e-06
7.24538e-06
7.58215e-06
7.93443e-06
8.30295e-06
8.68851e-06
9.09183e-06
9.5138e-06
9.95524e-06
1.04169e-05
1.08998e-05
1.14048e-05
1.19328e-05
1.24847e-05
1.30616e-05
1.36645e-05
1.42944e-05
1.49521e-05
1.56369e-05
1.6353e-05
1.70981e-05
1.78723e-05
1.86797e-05
1.95237e-05
2.04054e-05
2.13255e-05
2.22847e-05
2.32836e-05
2.43232e-05
2.54039e-05
2.65274e-05
2.76944e-05
2.89056e-05
3.0163e-05
3.1466e-05
3.28168e-05
3.42155e-05
3.56626e-05
3.71593e-05
3.87054e-05
4.03015e-05
4.19471e-05
4.36425e-05
4.53893e-05
4.71846e-05
4.90283e-05
5.09195e-05
5.28586e-05
5.48447e-05
5.68758e-05
5.895e-05
6.10636e-05
6.32189e-05
6.5415e-05
6.76445e-05
6.99074e-05
7.22e-05
7.45214e-05
7.68666e-05
7.92453e-05
8.16776e-05
8.41216e-05
8.65449e-05
8.89714e-05
9.14208e-05
9.38839e-05
9.63574e-05
9.88398e-05
0.000101324
0.00010379
0.000106218
0.000108607
0.000110999
0.000113457
0.000116038
0.000118737
0.000121538
0.000124427
0.000127409
0.000130457
0.000133693
0.000136935
0.000140595
0.000145101
0.000156806
0.000183506
5.03028e-06
5.21149e-06
5.45143e-06
5.70967e-06
5.97715e-06
6.25596e-06
6.54738e-06
6.85198e-06
7.1704e-06
7.50337e-06
7.85164e-06
8.21596e-06
8.59713e-06
8.99587e-06
9.41303e-06
9.84936e-06
1.03058e-05
1.07832e-05
1.12824e-05
1.18043e-05
1.23499e-05
1.29203e-05
1.35162e-05
1.41392e-05
1.47881e-05
1.54669e-05
1.61785e-05
1.69166e-05
1.76836e-05
1.84827e-05
1.9316e-05
2.01849e-05
2.10919e-05
2.20388e-05
2.30264e-05
2.40547e-05
2.51244e-05
2.62362e-05
2.73913e-05
2.85903e-05
2.9835e-05
3.11254e-05
3.24632e-05
3.38483e-05
3.5282e-05
3.67646e-05
3.82964e-05
3.98783e-05
4.15098e-05
4.31915e-05
4.49231e-05
4.67038e-05
4.85326e-05
5.04086e-05
5.23341e-05
5.43066e-05
5.63241e-05
5.83849e-05
6.04867e-05
6.26356e-05
6.48254e-05
6.70483e-05
6.93016e-05
7.15842e-05
7.38937e-05
7.62317e-05
7.86196e-05
8.1058e-05
8.34788e-05
8.58768e-05
8.82904e-05
9.07367e-05
9.32006e-05
9.56739e-05
9.8153e-05
0.000100638
0.000103105
0.000105534
0.000107929
0.000110325
0.000112791
0.000115381
0.000118091
0.000120917
0.00012384
0.000126882
0.000130007
0.00013334
0.000136677
0.000140434
0.000144953
0.000156173
0.000184163
5.15241e-06
5.38671e-06
5.64214e-06
5.90708e-06