/*--------------------------------*- C++ -*----------------------------------*\
  =========                 |
  \\      /  F ield         | OpenFOAM: The Open Source CFD Toolbox
   \\    /   O peration     | Website:  https://openfoam.org
    \\  /    A nd           | Version:  9
     \\/     M anipulation  |
\*---------------------------------------------------------------------------*/
FoamFile
{
    format      ascii;
    class       volScalarField;
    location    "750";
    object      nut;
}
// * * * * * * * * * * * * * * * * * * * * * * * * * * * * * * * * * * * * * //

dimensions      [0 2 -1 0 0 0 0];

internalField   nonuniform List<scalar> 
13538
(
8.79724e-07
6.71617e-07
8.56664e-07
8.55243e-07
8.55568e-07
8.56044e-07
8.56449e-07
8.56842e-07
8.57239e-07
8.57625e-07
8.58009e-07
8.58384e-07
8.58758e-07
8.59137e-07
8.59514e-07
8.59898e-07
8.6029e-07
8.6069e-07
8.61105e-07
8.61533e-07
8.61979e-07
8.62445e-07
8.62936e-07
8.63454e-07
8.64002e-07
8.64581e-07
8.65189e-07
8.65828e-07
8.66502e-07
8.67221e-07
8.67982e-07
8.68781e-07
8.69626e-07
8.70514e-07
8.71451e-07
8.72436e-07
8.73466e-07
8.74542e-07
8.75664e-07
8.76835e-07
8.78056e-07
8.79325e-07
8.8064e-07
8.82004e-07
8.83414e-07
8.84866e-07
8.8636e-07
8.87901e-07
8.89485e-07
8.91105e-07
8.92763e-07
8.94455e-07
8.96183e-07
8.97942e-07
8.99731e-07
9.01549e-07
9.03393e-07
9.05258e-07
9.07142e-07
9.09038e-07
9.10943e-07
9.12854e-07
9.14765e-07
9.16673e-07
9.18577e-07
9.20475e-07
9.2236e-07
9.24228e-07
9.26077e-07
9.27898e-07
9.29688e-07
9.3145e-07
9.33182e-07
9.34885e-07
9.36567e-07
9.38224e-07
9.39852e-07
9.41452e-07
9.43038e-07
9.44603e-07
9.45923e-07
9.46086e-07
9.43761e-07
9.38664e-07
9.32969e-07
9.29501e-07
9.2889e-07
9.30224e-07
9.32576e-07
9.35356e-07
9.3838e-07
9.41549e-07
9.45443e-07
9.50594e-07
9.59916e-07
9.82377e-07
1.04807e-06
1.16551e-06
2.26592e-07
8.9419e-07
6.0981e-07
8.74808e-07
8.70703e-07
8.70284e-07
8.7014e-07
8.6991e-07
8.69694e-07
8.69504e-07
8.69338e-07
8.69193e-07
8.69071e-07
8.68971e-07
8.68895e-07
8.68847e-07
8.68828e-07
8.68838e-07
8.6888e-07
8.68955e-07
8.69065e-07
8.69212e-07
8.69397e-07
8.69622e-07
8.69887e-07
8.70195e-07
8.70546e-07
8.70941e-07
8.71383e-07
8.71874e-07
8.72411e-07
8.72997e-07
8.73633e-07
8.74319e-07
8.75057e-07
8.75844e-07
8.76683e-07
8.77573e-07
8.78515e-07
8.79508e-07
8.80553e-07
8.81646e-07
8.82789e-07
8.83981e-07
8.85221e-07
8.86508e-07
8.87841e-07
8.89218e-07
8.90638e-07
8.92099e-07
8.93602e-07
8.95141e-07
8.96716e-07
8.98326e-07
8.99968e-07
9.01639e-07
9.03337e-07
9.05058e-07
9.06801e-07
9.0856e-07
9.10334e-07
9.12119e-07
9.13911e-07
9.15707e-07
9.17501e-07
9.19294e-07
9.21088e-07
9.22872e-07
9.24639e-07
9.26387e-07
9.28109e-07
9.29806e-07
9.31484e-07
9.3314e-07
9.34772e-07
9.3638e-07
9.37964e-07
9.39528e-07
9.41073e-07
9.42604e-07
9.44116e-07
9.45423e-07
9.45693e-07
9.43598e-07
9.3862e-07
9.32718e-07
9.28836e-07
9.27853e-07
9.28961e-07
9.31194e-07
9.33941e-07
9.36967e-07
9.40152e-07
9.44037e-07
9.49191e-07
9.57922e-07
9.77343e-07
1.03566e-06
1.16623e-06
2.32427e-07
8.98276e-07
3.23053e-06
8.71973e-07
8.66979e-07
8.66366e-07
8.66379e-07
8.66266e-07
8.66148e-07
8.66059e-07
8.65993e-07
8.6595e-07
8.6593e-07
8.65932e-07
8.65959e-07
8.66013e-07
8.66094e-07
8.66204e-07
8.66343e-07
8.66515e-07
8.66719e-07
8.66958e-07
8.67234e-07
8.67546e-07
8.67898e-07
8.68289e-07
8.68721e-07
8.69195e-07
8.69712e-07
8.70273e-07
8.7088e-07
8.71534e-07
8.72235e-07
8.72983e-07
8.7378e-07
8.74625e-07
8.7552e-07
8.76463e-07
8.77455e-07
8.78496e-07
8.79586e-07
8.80724e-07
8.81909e-07
8.83142e-07
8.84421e-07
8.85745e-07
8.87113e-07
8.88524e-07
8.89977e-07
8.9147e-07
8.93002e-07
8.9457e-07
8.96173e-07
8.9781e-07
8.99477e-07
9.01171e-07
9.02892e-07
9.04636e-07
9.06401e-07
9.08181e-07
9.09977e-07
9.11782e-07
9.13595e-07
9.15411e-07
9.17225e-07
9.19031e-07
9.20828e-07
9.22611e-07
9.24374e-07
9.26116e-07
9.27831e-07
9.29521e-07
9.31195e-07
9.32848e-07
9.34473e-07
9.36068e-07
9.37641e-07
9.39202e-07
9.40744e-07
9.42267e-07
9.43768e-07
9.45085e-07
9.45415e-07
9.4343e-07
9.38526e-07
9.32556e-07
9.28498e-07
9.2736e-07
9.28349e-07
9.30517e-07
9.33249e-07
9.36281e-07
9.3949e-07
9.43358e-07
9.48555e-07
9.57081e-07
9.74849e-07
1.02752e-06
1.163e-06
2.38888e-07
9.00841e-07
2.26613e-06
8.73771e-07
8.6796e-07
8.66915e-07
8.67001e-07
8.66928e-07
8.66822e-07
8.66741e-07
8.66682e-07
8.66644e-07
8.66626e-07
8.6663e-07
8.66657e-07
8.66709e-07
8.66787e-07
8.66892e-07
8.67026e-07
8.6719e-07
8.67387e-07
8.67617e-07
8.67882e-07
8.68184e-07
8.68523e-07
8.68902e-07
8.69321e-07
8.69781e-07
8.70284e-07
8.70831e-07
8.71423e-07
8.72061e-07
8.72746e-07
8.73478e-07
8.74258e-07
8.75087e-07
8.75964e-07
8.7689e-07
8.77865e-07
8.78889e-07
8.79962e-07
8.81083e-07
8.82252e-07
8.83468e-07
8.84729e-07
8.86036e-07
8.87387e-07
8.88782e-07
8.90219e-07
8.91696e-07
8.93211e-07
8.94763e-07
8.96349e-07
8.97969e-07
8.99621e-07
9.01299e-07
9.03003e-07
9.04732e-07
9.06481e-07
9.08248e-07
9.10027e-07
9.11817e-07
9.13613e-07
9.15414e-07
9.17214e-07
9.19007e-07
9.20791e-07
9.22564e-07
9.24317e-07
9.26049e-07
9.27759e-07
9.29439e-07
9.31091e-07
9.32716e-07
9.3431e-07
9.35875e-07
9.37425e-07
9.38963e-07
9.4048e-07
9.41978e-07
9.43459e-07
9.44772e-07
9.45131e-07
9.43239e-07
9.38439e-07
9.32422e-07
9.2816e-07
9.26833e-07
9.27695e-07
9.29787e-07
9.32486e-07
9.35498e-07
9.38715e-07
9.42538e-07
9.47757e-07
9.56073e-07
9.72648e-07
1.01992e-06
1.15808e-06
2.44195e-07
9.02603e-07
1.78485e-06
8.7477e-07
8.68542e-07
8.669e-07
8.67019e-07
8.66986e-07
8.66881e-07
8.66798e-07
8.66739e-07
8.667e-07
8.66682e-07
8.66685e-07
8.66712e-07
8.66763e-07
8.6684e-07
8.66946e-07
8.67079e-07
8.67243e-07
8.67439e-07
8.67669e-07
8.67934e-07
8.68235e-07
8.68574e-07
8.68952e-07
8.6937e-07
8.6983e-07
8.70332e-07
8.70878e-07
8.71468e-07
8.72104e-07
8.72788e-07
8.73518e-07
8.74296e-07
8.75123e-07
8.75998e-07
8.76922e-07
8.77894e-07
8.78916e-07
8.79985e-07
8.81103e-07
8.82269e-07
8.83482e-07
8.8474e-07
8.86043e-07
8.8739e-07
8.88781e-07
8.90213e-07
8.91685e-07
8.93196e-07
8.94743e-07
8.96325e-07
8.9794e-07
8.99586e-07
9.01259e-07
9.02959e-07
9.04681e-07
9.06423e-07
9.08184e-07
9.09957e-07
9.11742e-07
9.13532e-07
9.15326e-07
9.1712e-07
9.18907e-07
9.20686e-07
9.22453e-07
9.24198e-07
9.25923e-07
9.27625e-07
9.29301e-07
9.3095e-07
9.32571e-07
9.34163e-07
9.35729e-07
9.3727e-07
9.38786e-07
9.40279e-07
9.41755e-07
9.43214e-07
9.44508e-07
9.44872e-07
9.43042e-07
9.38347e-07
9.32325e-07
9.27904e-07
9.26409e-07
9.27163e-07
9.2918e-07
9.31835e-07
9.34826e-07
9.38046e-07
9.41811e-07
9.47031e-07
9.55169e-07
9.70999e-07
1.01348e-06
1.15148e-06
2.48302e-07
9.03856e-07
1.44508e-06
8.75652e-07
8.69218e-07
8.66892e-07
8.67018e-07
8.6704e-07
8.66946e-07
8.66868e-07
8.66814e-07
8.6678e-07
8.66766e-07
8.66774e-07
8.66805e-07
8.6686e-07
8.66941e-07
8.67049e-07
8.67186e-07
8.67352e-07
8.67551e-07
8.67782e-07
8.68048e-07
8.6835e-07
8.6869e-07
8.69068e-07
8.69486e-07
8.69945e-07
8.70446e-07
8.70991e-07
8.7158e-07
8.72213e-07
8.72894e-07
8.73622e-07
8.74397e-07
8.75221e-07
8.76092e-07
8.77012e-07
8.7798e-07
8.78997e-07
8.80061e-07
8.81174e-07
8.82334e-07
8.83542e-07
8.84794e-07
8.86091e-07
8.87432e-07
8.88817e-07
8.90243e-07
8.91708e-07
8.93211e-07
8.94752e-07
8.96327e-07
8.97934e-07
8.99573e-07
9.01239e-07
9.0293e-07
9.04645e-07
9.0638e-07
9.08133e-07
9.09898e-07
9.11675e-07
9.13457e-07
9.15244e-07
9.17029e-07
9.18809e-07
9.20578e-07
9.22338e-07
9.24077e-07
9.25794e-07
9.27489e-07
9.29157e-07
9.308e-07
9.32416e-07
9.34003e-07
9.35563e-07
9.371e-07
9.38613e-07
9.40107e-07
9.41579e-07
9.43024e-07
9.44304e-07
9.44687e-07
9.42861e-07
9.38256e-07
9.32253e-07
9.27708e-07
9.26044e-07
9.26691e-07
9.28636e-07
9.31244e-07
9.34214e-07
9.37434e-07
9.41126e-07
9.46323e-07
9.5424e-07
9.69627e-07
1.00802e-06
1.14403e-06
2.52439e-07
9.04762e-07
1.16192e-07
8.79192e-07
8.69711e-07
8.66952e-07
8.67033e-07
8.67117e-07
8.67035e-07
8.66959e-07
8.66908e-07
8.66877e-07
8.66866e-07
8.66876e-07
8.66909e-07
8.66966e-07
8.67049e-07
8.67159e-07
8.67296e-07
8.67464e-07
8.67663e-07
8.67894e-07
8.6816e-07
8.68462e-07
8.68801e-07
8.69178e-07
8.69595e-07
8.70052e-07
8.70551e-07
8.71094e-07
8.7168e-07
8.72311e-07
8.72988e-07
8.73712e-07
8.74483e-07
8.75302e-07
8.76169e-07
8.77085e-07
8.78048e-07
8.79059e-07
8.80119e-07
8.81226e-07
8.8238e-07
8.83581e-07
8.84827e-07
8.86119e-07
8.87454e-07
8.88832e-07
8.9025e-07
8.91709e-07
8.93206e-07
8.94739e-07
8.96307e-07
8.97907e-07
8.99538e-07
9.01197e-07
9.02882e-07
9.04589e-07
9.06318e-07
9.08062e-07
9.09819e-07
9.11588e-07
9.13364e-07
9.15144e-07
9.16922e-07
9.18695e-07
9.20457e-07
9.22208e-07
9.23939e-07
9.25651e-07
9.27339e-07
9.29003e-07
9.30638e-07
9.32247e-07
9.33829e-07
9.35384e-07
9.36918e-07
9.38428e-07
9.39917e-07
9.41386e-07
9.42832e-07
9.44123e-07
9.44537e-07
9.42781e-07
9.38234e-07
9.32238e-07
9.27559e-07
9.25732e-07
9.26292e-07
9.28173e-07
9.30735e-07
9.3367e-07
9.36867e-07
9.40504e-07
9.45659e-07
9.53327e-07
9.6844e-07
1.00313e-06
1.1357e-06
2.55294e-07
9.0553e-07
1.21957e-06
8.80513e-07
8.70545e-07
8.6706e-07
8.67034e-07
8.67185e-07
8.67121e-07
8.67046e-07
8.66997e-07
8.66969e-07
8.6696e-07
8.66973e-07
8.67008e-07
8.67067e-07
8.67151e-07
8.67262e-07
8.67401e-07
8.67569e-07
8.67769e-07
8.68e-07
8.68266e-07
8.68567e-07
8.68905e-07
8.69281e-07
8.69696e-07
8.70152e-07
8.70649e-07
8.71188e-07
8.71771e-07
8.72399e-07
8.73073e-07
8.73793e-07
8.7456e-07
8.75375e-07
8.76237e-07
8.77147e-07
8.78105e-07
8.79111e-07
8.80165e-07
8.81266e-07
8.82414e-07
8.83608e-07
8.84849e-07
8.86134e-07
8.87462e-07
8.88833e-07
8.90245e-07
8.91696e-07
8.93186e-07
8.94713e-07
8.96273e-07
8.97867e-07
8.99491e-07
9.01143e-07
9.0282e-07
9.04519e-07
9.0624e-07
9.07977e-07
9.09728e-07
9.11489e-07
9.13258e-07
9.1503e-07
9.168e-07
9.18566e-07
9.20321e-07
9.22064e-07
9.23789e-07
9.25493e-07
9.27174e-07
9.28832e-07
9.30461e-07
9.32062e-07
9.3364e-07
9.35193e-07
9.36724e-07
9.3823e-07
9.39716e-07
9.41184e-07
9.42629e-07
9.4392e-07
9.44349e-07
9.4265e-07
9.38185e-07
9.32227e-07
9.27445e-07
9.25471e-07
9.25937e-07
9.27765e-07
9.30285e-07
9.33182e-07
9.36364e-07
9.39942e-07
9.45025e-07
9.52421e-07
9.67341e-07
9.98959e-07
1.12716e-06
2.58815e-07
9.0618e-07
9.16764e-07
8.81337e-07
8.71553e-07
8.67209e-07
8.67033e-07
8.67252e-07
8.6721e-07
8.67136e-07
8.67089e-07
8.67063e-07
8.67057e-07
8.67071e-07
8.67108e-07
8.67168e-07
8.67254e-07
8.67365e-07
8.67505e-07
8.67673e-07
8.67872e-07
8.68104e-07
8.68369e-07
8.68669e-07
8.69005e-07
8.69379e-07
8.69792e-07
8.70246e-07
8.7074e-07
8.71277e-07
8.71857e-07
8.72481e-07
8.7315e-07
8.73866e-07
8.74629e-07
8.75438e-07
8.76295e-07
8.772e-07
8.78153e-07
8.79153e-07
8.80201e-07
8.81296e-07
8.82437e-07
8.83625e-07
8.84858e-07
8.86136e-07
8.87458e-07
8.88821e-07
8.90225e-07
8.9167e-07
8.93152e-07
8.94672e-07
8.96226e-07
8.97812e-07
8.99429e-07
9.01074e-07
9.02744e-07
9.04436e-07
9.06149e-07
9.07878e-07
9.09621e-07
9.11376e-07
9.13137e-07
9.149e-07
9.16663e-07
9.18422e-07
9.2017e-07
9.21906e-07
9.23623e-07
9.2532e-07
9.26996e-07
9.28646e-07
9.3027e-07
9.31867e-07
9.33439e-07
9.34987e-07
9.36513e-07
9.38018e-07
9.39501e-07
9.40967e-07
9.4241e-07
9.43694e-07
9.44124e-07
9.42467e-07
9.38041e-07
9.32126e-07
9.27324e-07
9.25261e-07
9.25642e-07
9.27407e-07
9.2988e-07
9.32747e-07
9.35906e-07
9.39434e-07
9.4443e-07
9.51543e-07
9.66278e-07
9.9527e-07
1.11815e-06
2.60238e-07
9.06729e-07
6.84449e-07
8.82345e-07
8.72617e-07
8.67419e-07
8.67033e-07
8.67316e-07
8.67302e-07
8.67229e-07
8.67182e-07
8.67158e-07
8.67153e-07
8.67169e-07
8.67207e-07
8.67268e-07
8.67354e-07
8.67467e-07
8.67606e-07
8.67775e-07
8.67973e-07
8.68204e-07
8.68468e-07
8.68766e-07
8.69101e-07
8.69473e-07
8.69884e-07
8.70334e-07
8.70825e-07
8.71358e-07
8.71935e-07
8.72555e-07
8.7322e-07
8.73931e-07
8.74688e-07
8.75493e-07
8.76344e-07
8.77243e-07
8.78189e-07
8.79183e-07
8.80225e-07
8.81313e-07
8.82447e-07
8.83628e-07
8.84854e-07
8.86125e-07
8.87439e-07
8.88796e-07
8.90193e-07
8.91629e-07
8.93104e-07
8.94617e-07
8.96163e-07
8.97742e-07
8.99351e-07
9.00988e-07
9.02651e-07
9.04335e-07
9.06041e-07
9.07764e-07
9.09499e-07
9.11246e-07
9.13e-07
9.14756e-07
9.16512e-07
9.18264e-07
9.20004e-07
9.21731e-07
9.23444e-07
9.25134e-07
9.268e-07
9.28444e-07
9.30061e-07
9.31654e-07
9.33222e-07
9.34765e-07
9.36288e-07
9.37791e-07
9.39273e-07
9.40737e-07
9.42181e-07
9.43464e-07
9.43893e-07
9.42259e-07
9.37802e-07
9.31924e-07
9.27111e-07
9.2501e-07
9.25373e-07
9.27114e-07
9.29539e-07
9.32354e-07
9.35483e-07
9.38967e-07
9.43863e-07
9.50695e-07
9.6518e-07
9.92054e-07
1.1093e-06
2.62105e-07
9.0719e-07
6.94439e-07
8.87548e-07
8.73523e-07
8.67683e-07
8.67034e-07
8.67376e-07
8.67396e-07
8.67324e-07
8.67277e-07
8.67254e-07
8.6725e-07
8.67267e-07
8.67306e-07
8.67368e-07
8.67455e-07
8.67567e-07
8.67706e-07
8.67874e-07
8.68072e-07
8.68301e-07
8.68563e-07
8.6886e-07
8.69192e-07
8.69562e-07
8.6997e-07
8.70417e-07
8.70905e-07
8.71434e-07
8.72006e-07
8.72622e-07
8.73282e-07
8.73988e-07
8.7474e-07
8.75538e-07
8.76383e-07
8.77276e-07
8.78216e-07
8.79203e-07
8.80237e-07
8.81319e-07
8.82446e-07
8.8362e-07
8.84838e-07
8.86101e-07
8.87407e-07
8.88756e-07
8.90145e-07
8.91575e-07
8.93042e-07
8.94547e-07
8.96085e-07
8.97656e-07
8.99257e-07
9.00887e-07
9.02543e-07
9.04221e-07
9.0592e-07
9.07633e-07
9.09362e-07
9.11101e-07
9.12849e-07
9.14597e-07
9.16345e-07
9.18088e-07
9.19822e-07
9.21541e-07
9.23246e-07
9.2493e-07
9.2659e-07
9.28227e-07
9.29838e-07
9.31424e-07
9.32988e-07
9.3453e-07
9.36048e-07
9.37548e-07
9.39031e-07
9.40493e-07
9.41938e-07
9.43219e-07
9.43607e-07
9.41976e-07
9.37535e-07
9.31664e-07
9.26844e-07
9.24718e-07
9.25064e-07
9.2681e-07
9.29227e-07
9.32003e-07
9.35095e-07
9.38533e-07
9.43333e-07
9.49896e-07
9.64081e-07
9.89108e-07
1.10058e-06
2.63964e-07
9.07673e-07
3.58329e-07
8.78907e-07
8.75381e-07
8.68032e-07
8.67036e-07
8.67431e-07
8.67492e-07
8.67423e-07
8.67375e-07
8.67352e-07
8.67349e-07
8.67366e-07
8.67405e-07
8.67467e-07
8.67554e-07
8.67666e-07
8.67804e-07
8.67971e-07
8.68168e-07
8.68396e-07
8.68656e-07
8.6895e-07
8.6928e-07
8.69647e-07
8.70051e-07
8.70495e-07
8.70979e-07
8.71504e-07
8.72071e-07
8.72682e-07
8.73337e-07
8.74036e-07
8.74782e-07
8.75575e-07
8.76413e-07
8.77299e-07
8.78232e-07
8.79212e-07
8.80239e-07
8.81313e-07
8.82433e-07
8.83598e-07
8.84809e-07
8.86065e-07
8.87363e-07
8.88704e-07
8.90085e-07
8.91506e-07
8.92965e-07
8.94462e-07
8.95992e-07
8.97555e-07
8.99149e-07
9.00771e-07
9.02419e-07
9.04089e-07
9.0578e-07
9.07487e-07
9.09209e-07
9.10941e-07
9.1268e-07
9.14421e-07
9.16161e-07
9.17897e-07
9.19625e-07
9.21337e-07
9.23034e-07
9.2471e-07
9.26363e-07
9.27994e-07
9.296e-07
9.31183e-07
9.32741e-07
9.34277e-07
9.35793e-07
9.37291e-07
9.38773e-07
9.40238e-07
9.41681e-07
9.42949e-07
9.43266e-07
9.41629e-07
9.37178e-07
9.31342e-07
9.26536e-07
9.24395e-07
9.24729e-07
9.26488e-07
9.2892e-07
9.31687e-07
9.34745e-07
9.38138e-07
9.42837e-07
9.49138e-07
9.62961e-07
9.86467e-07
1.09233e-06
2.64545e-07
9.07991e-07
6.15401e-07
8.99144e-07
8.75852e-07
8.68439e-07
8.67052e-07
8.67482e-07
8.67591e-07
8.67526e-07
8.67475e-07
8.67452e-07
8.67449e-07
8.67466e-07
8.67505e-07
8.67567e-07
8.67653e-07
8.67764e-07
8.67901e-07
8.68067e-07
8.68262e-07
8.68488e-07
8.68746e-07
8.69037e-07
8.69364e-07
8.69727e-07
8.70128e-07
8.70567e-07
8.71047e-07
8.71567e-07
8.7213e-07
8.72735e-07
8.73383e-07
8.74077e-07
8.74817e-07
8.75602e-07
8.76434e-07
8.77313e-07
8.78238e-07
8.7921e-07
8.80229e-07
8.81295e-07
8.82407e-07
8.83566e-07
8.84768e-07
8.86015e-07
8.87304e-07
8.88637e-07
8.9001e-07
8.91423e-07
8.92873e-07
8.94361e-07
8.95884e-07
8.97438e-07
8.99024e-07
9.00639e-07
9.02279e-07
9.03941e-07
9.05625e-07
9.07324e-07
9.09039e-07
9.10763e-07
9.12494e-07
9.1423e-07
9.15964e-07
9.17691e-07
9.19408e-07
9.21114e-07
9.22804e-07
9.24473e-07
9.26119e-07
9.27743e-07
9.29344e-07
9.30924e-07
9.32477e-07
9.3401e-07
9.35523e-07
9.37021e-07
9.38502e-07
9.39966e-07
9.4141e-07
9.42654e-07
9.42922e-07
9.41257e-07
9.36799e-07
9.30976e-07
9.26184e-07
9.24035e-07
9.24363e-07
9.26143e-07
9.28599e-07
9.31365e-07
9.34417e-07
9.37788e-07
9.4238e-07
9.48429e-07
9.61827e-07
9.84082e-07
1.08459e-06
2.65696e-07
9.08416e-07
3.23598e-07
8.67444e-07
8.78329e-07
8.68936e-07
8.67087e-07
8.67528e-07
8.67691e-07
8.67631e-07
8.67578e-07
8.67554e-07
8.67551e-07
8.67568e-07
8.67606e-07
8.67667e-07
8.67751e-07
8.67861e-07
8.67997e-07
8.68161e-07
8.68354e-07
8.68577e-07
8.68833e-07
8.69121e-07
8.69444e-07
8.69803e-07
8.702e-07
8.70635e-07
8.71109e-07
8.71625e-07
8.72181e-07
8.72781e-07
8.73424e-07
8.74111e-07
8.74843e-07
8.75621e-07
8.76446e-07
8.77317e-07
8.78235e-07
8.79199e-07
8.8021e-07
8.81267e-07
8.82371e-07
8.83519e-07
8.84713e-07
8.85952e-07
8.87233e-07
8.88556e-07
8.89921e-07
8.91325e-07
8.92767e-07
8.94245e-07
8.95759e-07
8.97306e-07
8.98885e-07
9.0049e-07
9.02122e-07
9.03776e-07
9.05453e-07
9.07146e-07
9.08853e-07
9.10569e-07
9.12294e-07
9.14021e-07
9.15746e-07
9.17468e-07
9.1918e-07
9.20877e-07
9.22558e-07
9.24221e-07
9.25861e-07
9.27479e-07
9.29075e-07
9.30647e-07
9.32197e-07
9.33728e-07
9.35239e-07
9.36736e-07
9.38218e-07
9.39681e-07
9.41126e-07
9.42356e-07
9.42569e-07
9.40803e-07
9.36352e-07
9.30606e-07
9.25828e-07
9.23659e-07
9.23972e-07
9.25772e-07
9.28257e-07
9.31032e-07
9.34084e-07
9.37448e-07
9.41961e-07
9.47771e-07
9.60713e-07
9.81861e-07
1.07736e-06
2.65486e-07
9.08706e-07
6.60389e-06
8.2995e-07
8.79032e-07
8.69577e-07
8.67142e-07
8.6757e-07
8.67792e-07
8.67741e-07
8.67683e-07
8.67657e-07
8.67654e-07
8.6767e-07
8.67707e-07
8.67767e-07
8.6785e-07
8.67958e-07
8.68092e-07
8.68254e-07
8.68444e-07
8.68665e-07
8.68917e-07
8.69202e-07
8.69521e-07
8.69876e-07
8.70268e-07
8.70698e-07
8.71167e-07
8.71676e-07
8.72227e-07
8.7282e-07
8.73456e-07
8.74136e-07
8.74862e-07
8.75632e-07
8.76449e-07
8.77312e-07
8.78221e-07
8.79177e-07
8.80179e-07
8.81227e-07
8.82321e-07
8.83461e-07
8.84646e-07
8.85875e-07
8.87147e-07
8.88462e-07
8.89817e-07
8.91212e-07
8.92644e-07
8.94114e-07
8.9562e-07
8.97158e-07
8.98727e-07
9.00325e-07
9.01949e-07
9.03596e-07
9.05264e-07
9.06949e-07
9.08649e-07
9.10358e-07
9.12076e-07
9.13797e-07
9.15513e-07
9.17226e-07
9.18931e-07
9.20622e-07
9.22297e-07
9.23953e-07
9.25587e-07
9.27199e-07
9.2879e-07
9.30358e-07
9.31903e-07
9.33432e-07
9.34941e-07
9.36433e-07
9.37916e-07
9.39382e-07
9.40824e-07
9.42041e-07
9.42212e-07
9.40339e-07
9.35863e-07
9.3018e-07
9.25427e-07
9.23247e-07
9.23556e-07
9.25378e-07
9.27898e-07
9.30693e-07
9.33747e-07
9.37102e-07
9.41558e-07
9.47164e-07
9.59612e-07
9.79734e-07
1.07086e-06
2.64892e-07
9.09015e-07
3.46147e-07
7.16588e-07
8.8067e-07
8.70261e-07
8.67215e-07
8.67612e-07
8.67896e-07
8.67855e-07
8.67792e-07
8.67764e-07
8.67759e-07
8.67774e-07
8.67809e-07
8.67867e-07
8.67949e-07
8.68055e-07
8.68186e-07
8.68345e-07
8.68533e-07
8.6875e-07
8.68999e-07
8.6928e-07
8.69595e-07
8.69945e-07
8.70332e-07
8.70756e-07
8.7122e-07
8.71723e-07
8.72267e-07
8.72853e-07
8.73482e-07
8.74155e-07
8.74872e-07
8.75635e-07
8.76443e-07
8.77297e-07
8.78198e-07
8.79145e-07
8.80138e-07
8.81176e-07
8.82261e-07
8.83391e-07
8.84566e-07
8.85786e-07
8.87049e-07
8.88354e-07
8.89699e-07
8.91085e-07
8.92507e-07
8.93968e-07
8.95464e-07
8.96993e-07
8.98554e-07
9.00143e-07
9.01759e-07
9.03398e-07
9.05058e-07
9.06736e-07
9.08428e-07
9.10131e-07
9.1184e-07
9.13554e-07
9.15264e-07
9.1697e-07
9.18668e-07
9.20353e-07
9.22019e-07
9.23668e-07
9.25297e-07
9.26903e-07
9.28488e-07
9.30052e-07
9.31594e-07
9.33119e-07
9.34628e-07
9.3612e-07
9.37602e-07
9.39068e-07
9.40513e-07
9.41713e-07
9.41832e-07
9.39855e-07
9.35436e-07
9.29738e-07
9.24998e-07
9.22809e-07
9.23109e-07
9.24955e-07
9.27513e-07
9.30326e-07
9.33398e-07
9.36765e-07
9.41184e-07
9.46604e-07
9.58538e-07
9.77723e-07
1.06471e-06
2.65319e-07
9.09375e-07
2.01468e-06
1.7554e-06
8.86268e-07
8.70757e-07
8.67298e-07
8.67649e-07
8.68003e-07
8.67975e-07
8.67906e-07
8.67874e-07
8.67867e-07
8.6788e-07
8.67914e-07
8.6797e-07
8.68049e-07
8.68153e-07
8.68281e-07
8.68437e-07
8.68622e-07
8.68836e-07
8.6908e-07
8.69357e-07
8.69667e-07
8.70012e-07
8.70393e-07
8.70812e-07
8.71269e-07
8.71766e-07
8.72303e-07
8.72883e-07
8.73504e-07
8.74167e-07
8.74875e-07
8.75629e-07
8.76428e-07
8.77273e-07
8.78165e-07
8.79102e-07
8.80086e-07
8.81115e-07
8.82189e-07
8.8331e-07
8.84475e-07
8.85683e-07
8.86936e-07
8.8823e-07
8.89566e-07
8.90942e-07
8.92355e-07
8.93806e-07
8.95293e-07
8.96813e-07
8.98365e-07
8.99946e-07
9.01552e-07
9.03182e-07
9.04834e-07
9.06505e-07
9.0819e-07
9.09885e-07
9.11587e-07
9.13293e-07
9.14997e-07
9.16696e-07
9.18387e-07
9.20065e-07
9.21727e-07
9.23371e-07
9.24993e-07
9.26592e-07
9.2817e-07
9.29729e-07
9.31271e-07
9.32794e-07
9.343e-07
9.3579e-07
9.37272e-07
9.38739e-07
9.40184e-07
9.41357e-07
9.41412e-07
9.39388e-07
9.34951e-07
9.2929e-07
9.24547e-07
9.22341e-07
9.22639e-07
9.24507e-07
9.27106e-07
9.29958e-07
9.33051e-07
9.36428e-07
9.40823e-07
9.46067e-07
9.57502e-07
9.75832e-07
1.05869e-06
2.638e-07
9.0954e-07
3.94042e-06
4.6169e-07
8.83009e-07
8.71876e-07
8.67443e-07
8.67666e-07
8.68107e-07
8.68103e-07
8.68027e-07
8.6799e-07
8.67981e-07
8.67992e-07
8.68023e-07
8.68076e-07
8.68153e-07
8.68254e-07
8.68379e-07
8.68532e-07
8.68712e-07
8.68922e-07
8.69162e-07
8.69434e-07
8.69739e-07
8.70078e-07
8.70453e-07
8.70866e-07
8.71316e-07
8.71806e-07
8.72336e-07
8.72907e-07
8.7352e-07
8.74175e-07
8.74874e-07
8.75617e-07
8.76405e-07
8.7724e-07
8.78121e-07
8.79049e-07
8.80022e-07
8.81042e-07
8.82106e-07
8.83215e-07
8.8437e-07
8.85569e-07
8.8681e-07
8.88094e-07
8.89419e-07
8.90785e-07
8.92188e-07
8.93629e-07
8.95106e-07
8.96617e-07
8.98158e-07
8.99729e-07
9.01327e-07
9.02949e-07
9.04594e-07
9.06256e-07
9.07933e-07
9.0962e-07
9.11316e-07
9.13015e-07
9.14713e-07
9.16405e-07
9.18089e-07
9.19759e-07
9.21414e-07
9.23051e-07
9.24669e-07
9.26263e-07
9.27839e-07
9.29395e-07
9.30932e-07
9.32451e-07
9.33956e-07
9.35447e-07
9.36927e-07
9.38396e-07
9.39837e-07
9.40971e-07
9.40959e-07
9.38861e-07
9.34444e-07
9.28821e-07
9.24087e-07
9.21852e-07
9.22138e-07
9.24024e-07
9.26669e-07
9.29568e-07
9.32693e-07
9.36086e-07
9.40479e-07
9.45576e-07
9.56508e-07
9.73979e-07
1.05389e-06
2.63907e-07
9.09828e-07
1.91615e-07
4.92573e-07
8.86211e-07
8.72673e-07
8.67589e-07
8.67653e-07
8.68191e-07
8.68233e-07
8.68155e-07
8.68111e-07
8.68099e-07
8.68107e-07
8.68136e-07
8.68186e-07
8.68258e-07
8.68355e-07
8.68477e-07
8.68626e-07
8.68801e-07
8.69006e-07
8.69241e-07
8.69508e-07
8.69806e-07
8.70139e-07
8.70507e-07
8.70912e-07
8.71355e-07
8.71837e-07
8.72359e-07
8.72921e-07
8.73526e-07
8.74174e-07
8.74866e-07
8.75599e-07
8.76376e-07
8.772e-07
8.7807e-07
8.78986e-07
8.79949e-07
8.80957e-07
8.82011e-07
8.8311e-07
8.84253e-07
8.8544e-07
8.86671e-07
8.87944e-07
8.89258e-07
8.90613e-07
8.92006e-07
8.93437e-07
8.94903e-07
8.96403e-07
8.97935e-07
8.99497e-07
9.01087e-07
9.02699e-07
9.04335e-07
9.05988e-07
9.07657e-07
9.09338e-07
9.11026e-07
9.12718e-07
9.14409e-07
9.16095e-07
9.17773e-07
9.19438e-07
9.21087e-07
9.22717e-07
9.24329e-07
9.2592e-07
9.27491e-07
9.29042e-07
9.30578e-07
9.32097e-07
9.33597e-07
9.35086e-07
9.36566e-07
9.38037e-07
9.39476e-07
9.40577e-07
9.40509e-07
9.38301e-07
9.33926e-07
9.28363e-07
9.23637e-07
9.21356e-07
9.2161e-07
9.23516e-07
9.26216e-07
9.29168e-07
9.32332e-07
9.35748e-07
9.40153e-07
9.45115e-07
9.55594e-07
9.72149e-07
1.04901e-06
2.61958e-07
9.10099e-07
1.35987e-06
1.42233e-07
8.92107e-07
8.73564e-07
8.67715e-07
8.67621e-07
8.6824e-07
8.68342e-07
8.68278e-07
8.6823e-07
8.68212e-07
8.68216e-07
8.6824e-07
8.68286e-07
8.68355e-07
8.68447e-07
8.68565e-07
8.68708e-07
8.68879e-07
8.69077e-07
8.69306e-07
8.69567e-07
8.69859e-07
8.70184e-07
8.70545e-07
8.70942e-07
8.71377e-07
8.7185e-07
8.72363e-07
8.72915e-07
8.73511e-07
8.74156e-07
8.74844e-07
8.75572e-07
8.76341e-07
8.77153e-07
8.7801e-07
8.78915e-07
8.79865e-07
8.80862e-07
8.81905e-07
8.82991e-07
8.84123e-07
8.85299e-07
8.86518e-07
8.8778e-07
8.89083e-07
8.90426e-07
8.91809e-07
8.93228e-07
8.94684e-07
8.96174e-07
8.97696e-07
8.99247e-07
9.00828e-07
9.02431e-07
9.04057e-07
9.05701e-07
9.07363e-07
9.09037e-07
9.10718e-07
9.12402e-07
9.14086e-07
9.15764e-07
9.17437e-07
9.19096e-07
9.20739e-07
9.22364e-07
9.23972e-07
9.25558e-07
9.27128e-07
9.28678e-07
9.30208e-07
9.31721e-07
9.33223e-07
9.34716e-07
9.36198e-07
9.37668e-07
9.39098e-07
9.40153e-07
9.40008e-07
9.37777e-07
9.33467e-07
9.27951e-07
9.23231e-07
9.20879e-07
9.2108e-07
9.22986e-07
9.25727e-07
9.28744e-07
9.31969e-07
9.35412e-07
9.39845e-07
9.44694e-07
9.54744e-07
9.7041e-07
1.04472e-06
2.61479e-07
9.10268e-07
1.65255e-06
1.82358e-06
8.8786e-07
8.75028e-07
8.68129e-07
8.6763e-07
8.68272e-07
8.6842e-07
8.68374e-07
8.6833e-07
8.68307e-07
8.68305e-07
8.68325e-07
8.68367e-07
8.68431e-07
8.68518e-07
8.6863e-07
8.68768e-07
8.68933e-07
8.69127e-07
8.69349e-07
8.69603e-07
8.69889e-07
8.70208e-07
8.70561e-07
8.70951e-07
8.71377e-07
8.71842e-07
8.72347e-07
8.72889e-07
8.73477e-07
8.74113e-07
8.74797e-07
8.75526e-07
8.76293e-07
8.77099e-07
8.77945e-07
8.78836e-07
8.79773e-07
8.80757e-07
8.81787e-07
8.82862e-07
8.83982e-07
8.85145e-07
8.86352e-07
8.87601e-07
8.88892e-07
8.90224e-07
8.91595e-07
8.93004e-07
8.94449e-07
8.95928e-07
8.97439e-07
8.9898e-07
9.0055e-07
9.02144e-07
9.03763e-07
9.05398e-07
9.07051e-07
9.08716e-07
9.10391e-07
9.12067e-07
9.13746e-07
9.15418e-07
9.17084e-07
9.18736e-07
9.20374e-07
9.21994e-07
9.23598e-07
9.25183e-07
9.26748e-07
9.28291e-07
9.29821e-07
9.31337e-07
9.32839e-07
9.34332e-07
9.35816e-07
9.37289e-07
9.38716e-07
9.39743e-07
9.39486e-07
9.37253e-07
9.33027e-07
9.27622e-07
9.22897e-07
9.20427e-07
9.20538e-07
9.22427e-07
9.25215e-07
9.28296e-07
9.31593e-07
9.35079e-07
9.39551e-07
9.44303e-07
9.53977e-07
9.68709e-07
1.04031e-06
2.60327e-07
7.67617e-08
1.1777e-06
8.92348e-07
8.76067e-07
8.68576e-07
8.67741e-07
8.68355e-07
8.68499e-07
8.68449e-07
8.68409e-07
8.68387e-07
8.68382e-07
8.68398e-07
8.68435e-07
8.68496e-07
8.68579e-07
8.68688e-07
8.68821e-07
8.68982e-07
8.69171e-07
8.69389e-07
8.69637e-07
8.69917e-07
8.7023e-07
8.70578e-07
8.7096e-07
8.7138e-07
8.71837e-07
8.72334e-07
8.72871e-07
8.73445e-07
8.74061e-07
8.74729e-07
8.75453e-07
8.76222e-07
8.77028e-07
8.77868e-07
8.78749e-07
8.79673e-07
8.80643e-07
8.8166e-07
8.82721e-07
8.83828e-07
8.84979e-07
8.86173e-07
8.8741e-07
8.88688e-07
8.90008e-07
8.91367e-07
8.92764e-07
8.94196e-07
8.95664e-07
8.97166e-07
8.98696e-07
9.00256e-07
9.0184e-07
9.03448e-07
9.05075e-07
9.0672e-07
9.08378e-07
9.10044e-07
9.11713e-07
9.13383e-07
9.1505e-07
9.1671e-07
9.18357e-07
9.19988e-07
9.21605e-07
9.23205e-07
9.24785e-07
9.26349e-07
9.27891e-07
9.2942e-07
9.30942e-07
9.32448e-07
9.33943e-07
9.35427e-07
9.36902e-07
9.38324e-07
9.39324e-07
9.39033e-07
9.36812e-07
9.32642e-07
9.27337e-07
9.22588e-07
9.19986e-07
9.19983e-07
9.21846e-07
9.24674e-07
9.27825e-07
9.31203e-07
9.34744e-07
9.39273e-07
9.43949e-07
9.53272e-07
9.67119e-07
1.03586e-06
2.58753e-07
2.77921e-06
9.00681e-07
8.77338e-07
8.68948e-07
8.67887e-07
8.68525e-07
8.68652e-07
8.68564e-07
8.68515e-07
8.68497e-07
8.68491e-07
8.68504e-07
8.68539e-07
8.68597e-07
8.68678e-07
8.68783e-07
8.68914e-07
8.69071e-07
8.69255e-07
8.69469e-07
8.69712e-07
8.69987e-07
8.70294e-07
8.70635e-07
8.71011e-07
8.71423e-07
8.71873e-07
8.72361e-07
8.72894e-07
8.7345e-07
8.74037e-07
8.74672e-07
8.75369e-07
8.76126e-07
8.7693e-07
8.77771e-07
8.78649e-07
8.79564e-07
8.80521e-07
8.81523e-07
8.8257e-07
8.83663e-07
8.848e-07
8.85981e-07
8.87205e-07
8.8847e-07
8.89777e-07
8.91122e-07
8.92507e-07
8.93928e-07
8.95385e-07
8.96874e-07
8.98393e-07
8.99942e-07
9.01518e-07
9.03116e-07
9.04735e-07
9.0637e-07
9.08019e-07
9.09677e-07
9.11339e-07
9.13003e-07
9.14661e-07
9.16313e-07
9.17955e-07
9.19581e-07
9.21192e-07
9.22789e-07
9.2437e-07
9.2593e-07
9.27472e-07
9.29011e-07
9.30542e-07
9.3205e-07
9.33545e-07
9.35029e-07
9.36504e-07
9.37924e-07
9.38901e-07
9.38587e-07
9.36392e-07
9.32322e-07
9.27076e-07
9.22255e-07
9.19519e-07
9.194e-07
9.21227e-07
9.24092e-07
9.27315e-07
9.30781e-07
9.34386e-07
9.39003e-07
9.4363e-07
9.52652e-07
9.65617e-07
1.03169e-06
2.57327e-07
8.69268e-07
8.67979e-07
8.68717e-07
8.68896e-07
8.68779e-07
8.68705e-07
8.68681e-07
8.68674e-07
8.68685e-07
8.68716e-07
8.68769e-07
8.68846e-07
8.68947e-07
8.69072e-07
8.69223e-07
8.69402e-07
8.69609e-07
8.69845e-07
8.70112e-07
8.70411e-07
8.70744e-07
8.7111e-07
8.71513e-07
8.71952e-07
8.72428e-07
8.72951e-07
8.73492e-07
8.74059e-07
8.74662e-07
8.75313e-07
8.76029e-07
8.7681e-07
8.77646e-07
8.78525e-07
8.79439e-07
8.80388e-07
8.81378e-07
8.8241e-07
8.83488e-07
8.84611e-07
8.85778e-07
8.86988e-07
8.88239e-07
8.89531e-07
8.90864e-07
8.92235e-07
8.93644e-07
8.95088e-07
8.96565e-07
8.98074e-07
8.99611e-07
9.01176e-07
9.02765e-07
9.04374e-07
9.06e-07
9.0764e-07
9.0929e-07
9.10945e-07
9.12602e-07
9.14253e-07
9.15897e-07
9.17532e-07
9.19153e-07
9.20762e-07
9.22357e-07
9.23935e-07
9.25495e-07
9.27043e-07
9.28597e-07
9.30135e-07
9.31641e-07
9.33131e-07
9.34615e-07
9.3609e-07
9.37507e-07
9.38462e-07
9.38142e-07
9.35992e-07
9.31985e-07
9.26764e-07
9.21871e-07
9.18987e-07
9.18753e-07
9.20551e-07
9.2345e-07
9.26753e-07
9.30329e-07
9.34009e-07
9.3873e-07
9.4334e-07
9.52128e-07
9.64236e-07
1.02754e-06
2.55202e-07
8.68038e-07
8.68832e-07
8.69147e-07
8.69047e-07
8.68948e-07
8.68908e-07
8.68894e-07
8.68899e-07
8.68923e-07
8.68969e-07
8.69038e-07
8.6913e-07
8.69247e-07
8.6939e-07
8.69559e-07
8.69756e-07
8.69983e-07
8.70239e-07
8.70527e-07
8.70848e-07
8.71203e-07
8.71593e-07
8.7202e-07
8.72483e-07
8.72986e-07
8.73521e-07
8.74093e-07
8.74687e-07
8.75304e-07
8.75969e-07
8.76704e-07
8.77511e-07
8.78376e-07
8.79285e-07
8.80233e-07
8.81217e-07
8.82239e-07
8.83303e-07
8.84411e-07
8.85562e-07
8.86758e-07
8.87994e-07
8.89273e-07
8.90591e-07
8.91948e-07
8.93344e-07
8.94774e-07
8.96239e-07
8.97736e-07
8.99262e-07
9.00816e-07
9.02393e-07
9.03992e-07
9.05608e-07
9.07239e-07
9.08879e-07
9.10526e-07
9.12176e-07
9.13821e-07
9.15461e-07
9.17091e-07
9.18712e-07
9.20321e-07
9.21914e-07
9.23489e-07
9.25049e-07
9.26611e-07
9.28179e-07
9.29711e-07
9.31206e-07
9.3269e-07
9.34174e-07
9.35652e-07
9.37066e-07
9.38008e-07
9.37699e-07
9.35571e-07
9.31588e-07
9.2637e-07
9.21415e-07
9.1842e-07
9.1808e-07
9.19833e-07
9.22761e-07
9.26136e-07
9.29828e-07
9.33614e-07
9.38464e-07
9.43088e-07
9.51717e-07
9.62975e-07
1.024e-06
2.53814e-07
8.6888e-07
8.69305e-07
8.69241e-07
8.69134e-07