/*--------------------------------*- C++ -*----------------------------------*\
  =========                 |
  \\      /  F ield         | OpenFOAM: The Open Source CFD Toolbox
   \\    /   O peration     | Website:  https://openfoam.org
    \\  /    A nd           | Version:  9
     \\/     M anipulation  |
\*---------------------------------------------------------------------------*/
FoamFile
{
    format      ascii;
    class       volScalarField;
    location    "750";
    object      omega;
}
// * * * * * * * * * * * * * * * * * * * * * * * * * * * * * * * * * * * * * //

dimensions      [0 0 -1 0 0 0 0];

internalField   nonuniform List<scalar> 
13538
(
10.1224
1.45158
4.35617
4.9426
5.16797
5.42608
5.69906
5.98286
6.2789
6.58755
6.91009
7.24707
7.59937
7.96823
8.35376
8.75741
9.17986
9.62169
10.0842
10.5681
11.0742
11.6038
12.1579
12.7376
13.344
13.9783
14.6411
15.3333
16.0563
16.8125
17.6026
18.4268
19.2874
20.1852
21.1225
22.0999
23.1177
24.178
25.2813
26.4296
27.6245
28.8667
30.1572
31.4974
32.8875
34.3274
35.8188
37.3649
38.9642
40.616
42.321
44.0792
45.8924
47.7588
49.6784
51.6538
53.6827
55.764
57.8959
60.0743
62.2983
64.5671
66.8765
69.2261
71.6155
74.0474
76.5165
79.018
81.5509
84.107
86.682
89.2778
91.8931
94.5215
97.1707
99.8319
102.492
105.153
107.826
110.504
113.192
116.008
119.098
122.48
125.935
129.153
132.053
134.7
137.181
139.539
141.781
143.892
145.848
147.624
149.251
151.19
153.889
157.3
156.739
13.1845
1.43765
4.77124
5.60371
5.83743
6.10344
6.39055
6.68959
7.00117
7.32639
7.66616
8.02137
8.39268
8.781
9.18724
9.61218
10.0567
10.5217
11.0078
11.5163
12.0479
12.6036
13.1842
13.7908
14.4245
15.0862
15.7769
16.4979
17.2505
18.0351
18.8529
19.7054
20.5936
21.5186
22.4812
23.4828
24.5246
25.6073
26.7327
27.9013
29.1139
30.3717
31.6756
33.0263
34.4245
35.8709
37.3663
38.911
40.5052
42.1497
43.8441
45.5879
47.3817
49.2251
51.1172
53.0574
55.0443
57.0774
59.154
61.2736
63.4347
65.6357
67.8749
70.1481
72.4585
74.8106
77.1978
79.6094
82.0461
84.5024
86.9799
89.4826
92.0085
94.5482
97.0996
99.6594
102.227
104.805
107.39
109.979
112.584
115.307
118.295
121.586
124.987
128.185
131.066
133.697
136.169
138.523
140.785
142.932
144.943
146.789
148.464
150.38
153.127
155.533
147.596
15.4968
0.434952
4.29871
5.40523
5.6469
5.90113
6.18468
6.48084
6.78945
7.11161
7.44821
7.80014
8.16817
8.55314
8.9559
9.37734
9.81825
10.2795
10.762
11.2666
11.7943
12.346
12.9227
13.5255
14.1552
14.8131
15.4999
16.2169
16.9652
17.7459
18.5602
19.409
20.2937
21.2153
22.175
23.1739
24.2133
25.2938
26.4168
27.5835
28.7946
30.0513
31.3548
32.7054
34.1041
35.5515
37.0483
38.5951
40.192
41.8394
43.5378
45.2863
47.0858
48.9356
50.8339
52.781
54.777
56.8202
58.9081
61.0404
63.2149
65.4296
67.6841
69.9744
72.2969
74.6497
77.0314
79.4371
81.8667
84.3125
86.7801
89.2765
91.7937
94.3204
96.8501
99.3914
101.952
104.519
107.087
109.656
112.243
114.947
117.904
121.166
124.559
127.764
130.653
133.284
135.755
138.118
140.395
142.569
144.626
146.527
148.254
150.166
152.902
154.734
140.798
17.5585
0.695678
4.08909
5.45664
5.72759
5.97418
6.25842
6.55682
6.86749
7.19171
7.53036
7.8843
8.25438
8.6414
9.04624
9.4697
9.91264
10.3759
10.8605
11.3672
11.8969
12.4507
13.0295
13.6342
14.2659
14.9257
15.6145
16.3335
17.0838
17.8663
18.6822
19.5329
20.4192
21.3423
22.3035
23.3036
24.344
25.4257
26.5498
27.7172
28.929
30.1862
31.49
32.8403
34.2386
35.6853
37.1815
38.7275
40.323
41.9687
43.6649
45.411
47.2076
49.0545
50.9499
52.8932
54.8845
56.9235
59.0074
61.1341
63.3022
65.5103
67.7585
70.0425
72.3585
74.7054
77.0844
79.4862
81.9116
84.3589
86.8204
89.2944
91.7812
94.2717
96.7645
99.2759
101.802
104.33
106.859
109.396
111.957
114.622
117.533
120.754
124.119
127.312
130.197
132.825
135.294
137.655
139.933
142.115
144.204
146.155
147.94
149.847
152.546
154.041
135.344
19.3764
0.967911
3.79583
5.42392
5.73756
5.9742
6.25627
6.55488
6.86569
7.18996
7.52866
7.88265
8.25279
8.63982
9.04464
9.46812
9.91108
10.3744
10.8589
11.3656
11.8954
12.4492
13.0279
13.6327
14.2644
14.9241
15.613
16.3319
17.0822
17.8648
18.6807
19.5313
20.4176
21.3406
22.3017
23.3017
24.3421
25.4235
26.5474
27.7148
28.9265
30.1833
31.4866
32.8368
34.2345
35.6808
37.1765
38.7216
40.3164
41.9617
43.6572
45.4025
47.1978
49.0437
50.9379
52.8808
54.8707
56.9073
58.9895
61.1151
63.2833
65.4898
67.7353
70.0168
72.332
74.6789
77.0557
79.4536
81.8756
84.319
86.78
89.2551
91.741
94.2333
96.7315
99.2349
101.733
104.227
106.722
109.227
111.752
114.377
117.252
120.438
123.774
126.955
129.837
132.461
134.923
137.279
139.559
141.749
143.861
145.843
147.672
149.573
152.21
153.6
131.378
21.013
1.41103
3.50032
5.38805
5.75849
5.98618
6.26545
6.56454
6.87584
7.20053
7.53963
7.89399
8.26446
8.65184
9.05699
9.48077
9.92402
10.3876
10.8724
11.3794
11.9094
12.4634
13.0424
13.6473
14.2792
14.9391
15.6281
16.3471
17.0974
17.88
18.6959
19.5464
20.4327
21.3556
22.3165
23.3163
24.3565
25.4377
26.5609
27.7276
28.9388
30.195
31.4975
32.8466
34.2435
35.6887
37.1832
38.7271
40.3201
41.9635
43.6575
45.4014
47.1948
49.0381
50.9303
52.8703
54.8577
56.8924
58.9721
61.0944
63.259
65.4631
67.7059
69.9841
72.2966
74.6381
77.0117
79.4084
81.8264
84.2665
86.7235
89.1944
91.6789
94.169
96.6626
99.1623
101.66
104.158
106.649
109.132
111.621
114.207
117.05
120.185
123.485
126.66
129.534
132.143
134.595
136.943
139.23
141.427
143.55
145.557
147.429
149.332
151.881
153.287
127.876
22.5011
2.3598
3.18311
5.33466
5.77359
5.99347
6.2687
6.56788
6.87944
7.20421
7.54336
7.89777
8.26826
8.65567
9.06081
9.48453
9.9277
10.3912
10.8759
11.3827
11.9125
12.4663
13.0451
13.6498
14.2814
14.941
15.6296
16.3483
17.0981
17.8802
18.6957
19.5456
20.4313
21.3535
22.3136
23.3127
24.3521
25.4322
26.5546
27.7202
28.9302
30.185
31.4858
32.8336
34.2293
35.6732
37.1657
38.7075
40.2987
41.94
43.6319
45.3732
47.164
49.0043
50.8938
52.8316
54.8166
56.849
58.925
61.0435
63.2049
65.4067
67.6476
69.9229
72.2318
74.5711
76.9401
79.333
81.7502
84.1874
86.643
89.1095
91.5888
94.0758
96.5673
99.0646
101.561
104.054
106.542
109.026
111.519
114.096
116.905
119.994
123.256
126.41
129.275
131.881
134.324
136.666
138.948
141.142
143.284
145.316
147.218
149.112
151.568
153.109
125.404
23.8648
0.753305
2.87071
5.26195
5.78471
5.99881
6.26888
6.5678
6.87947
7.20419
7.54325
7.89753
8.26786
8.65507
9.05998
9.48345
9.92634
10.3895
10.8739
11.3803
11.9097
12.463
13.0413
13.6454
14.2764
14.9354
15.6233
16.3413
17.0903
17.8716
18.6862
19.5351
20.4197
21.3409
22.3
23.2978
24.3356
25.4145
26.5355
27.6996
28.9077
30.1608
31.4598
32.8057
34.1992
35.6406
37.1308
38.6702
40.2592
41.8978
43.5867
45.325
47.1134
48.9512
50.8372
52.7718
54.7528
56.7811
58.8543
60.9708
63.1286
65.3271
67.5642
69.8351
72.1415
74.4771
76.8427
79.2336
81.6459
84.0787
86.5316
88.9955
91.4695
93.9546
96.4463
98.9424
101.434
103.924
106.412
108.893
111.384
113.956
116.761
119.85
123.093
126.218
129.064
131.651
134.087
136.425
138.705
140.906
143.057
145.104
147.04
148.937
151.287
152.991
122.893
25.1282
1.97949
2.54091
5.17317
5.79098
6.00177
6.26562
6.56385
6.8755
7.19998
7.53875
7.89272
8.26266
8.64946
9.05394
9.47691
9.91925
10.3818
10.8655
11.3713
11.9
12.4525
13.03
13.6332
14.2634
14.9213
15.6082
16.325
17.073
17.853
18.6663
19.5139
20.397
21.3167
22.274
23.27
24.3061
25.3832
26.5022
27.6642
28.8702
30.1211
31.4177
32.7612
34.152
35.5907
37.0782
38.6141
40.2
41.8354
43.5216
45.2567
47.0413
48.8755
50.7585
52.6893
54.6666
56.6909
58.7594
60.872
63.0273
65.2212
67.4528
69.7203
72.0234
74.3562
76.718
79.105
81.5146
83.9454
86.3943
88.8555
91.3283
93.8096
96.2967
98.7887
101.281
103.768
106.252
108.731
111.221
113.796
116.597
119.682
122.926
126.063
128.907
131.472
133.885
136.211
138.493
140.701
142.864
144.924
146.886
148.79
151.04
152.947
121.59
26.3008
0.569762
2.19747
5.06825
5.79173
6.00235
6.259
6.55604
6.86752
7.19163
7.52991
7.88333
8.2527
8.63888
9.04266
9.4649
9.90647
10.3682
10.851
11.3558
11.8835
12.435
13.0113
13.6134
14.2422
14.8989
15.5844
16.2997
17.046
17.8244
18.636
19.4818
20.363
21.2808
22.236
23.2299
24.2636
25.3382
26.4547
27.6143
28.8175
30.0656
31.3593
32.6992
34.0871
35.5225
37.0067
38.5396
40.1216
41.7533
43.4356
45.1669
46.9475
48.7774
50.6562
52.5828
54.5554
56.5758
58.6402
60.7484
62.8982
65.0887
67.3167
69.5807
71.8799
74.2077
76.5644
78.9504
81.3573
83.7817
86.2263
88.6849
91.1557
93.6342
96.1184
98.6078
101.096
103.583
106.066
108.545
111.034
113.609
116.407
119.496
122.739
125.88
128.733
131.317
133.73
136.037
138.306
140.517
142.693
144.762
146.748
148.662
150.835
152.926
120.37
27.3996
2.16714
1.84834
4.945
5.78652
6.00045
6.24909
6.54439
6.85551
7.17907
7.51668
7.86938
8.23796
8.62326
9.02615
9.44743
9.88796
10.3486
10.8302
11.3338
11.8602
12.4103
12.9852
13.5857
14.213
14.8679
15.5516
16.2651
17.0095
17.7859
18.5954
19.439
20.3178
21.2331
22.1857
23.177
24.208
25.2798
26.3932
27.5493
28.7496
29.9943
31.2846
32.6212
34.005
35.4365
36.9166
38.4453
40.0237
41.6512
43.3288
45.0556
46.8314
48.6563
50.5305
52.4532
54.4217
56.4374
58.4961
60.5994
62.7446
64.9313
67.1546
69.4129
71.7064
74.0318
76.3834
78.7643
81.1686
83.5912
86.0321
88.4862
90.9528
93.4296
95.9133
98.3982
100.884
103.371
105.85
108.329
110.819
113.398
116.194
119.286
122.533
125.675
128.541
131.135
133.561
135.877
138.142
140.353
142.535
144.622
146.643
148.559
150.663
152.937
119.267
28.4246
0.76976
1.48906
4.80491
5.77464
5.99602
6.23591
6.52886
6.83946
7.16231
7.49905
7.85079
8.21837
8.60262
9.00436
9.42439
9.86364
10.3229
10.8031
11.3052
11.83
12.3784
12.9515
13.5502
14.1755
14.8285
15.5101
16.2214
16.9634
17.7374
18.5443
19.3852
20.2612
21.1736
22.1233
23.1114
24.1391
25.2076
26.3176
27.47
28.6663
29.9072
31.1932
32.5257
33.9057
35.3329
36.8085
38.3325
39.9059
41.5281
43.2009
44.9226
46.6936
48.5138
50.382
52.2989
54.262
56.2722
58.3262
60.4253
62.5651
64.746
66.9636
69.2172
71.5065
73.8281
76.1768
78.5528
80.9516
83.37
85.8083
88.26
90.7254
93.1977
95.6756
98.1582
100.643
103.128
105.61
108.087
110.576
113.164
115.965
119.057
122.302
125.452
128.324
130.932
133.374
135.709
137.994
140.21
142.396
144.497
146.543
148.469
150.525
152.953
118.895
29.3921
2.72101
1.09796
4.65034
5.75591
5.98887
6.21951
6.50947
6.81933
7.14132
7.47699
7.8276
8.19396
8.57688
8.97723
9.39585
9.83356
10.2912
10.7697
11.27
11.7929
12.3394
12.9104
13.5069
14.1299
14.7805
15.4596
16.1682
16.9076
17.6787
18.4825
19.3203
20.1932
21.1023
22.0485
23.0331
24.0568
25.1212
26.2271
27.3756
28.5676
29.804
31.0857
32.4136
33.7883
35.2103
36.6811
38.1999
39.7682
41.3848
43.0515
44.7679
46.5327
48.3473
50.2105
52.1218
54.0788
56.0831
58.1313
60.2239
62.3576
64.5324
66.747
68.9965
71.2789
73.5931
75.9375
78.3103
80.7047
83.1187
85.5525
88.002
90.4655
92.9345
95.4102
97.8909
100.375
102.858
105.337
107.816
110.311
112.907
115.711
118.806
122.048
125.195
128.082
130.705
133.164
135.519
137.826
140.072
142.281
144.386
146.451
148.391
150.421
152.966
118.426
30.2971
1.45951
0.72618
4.47119
5.72941
5.97899
6.19996
6.48621
6.7951
7.11605
7.45049
7.79975
8.16468
8.54608
8.94483
9.36174
9.79766
10.2534
10.73
11.2281
11.7488
12.293
12.8616
13.4557
14.0761
14.7239
15.4001
16.1058
16.842
17.6098
18.4104
19.2447
20.1138
21.019
21.9612
22.9416
23.9612
25.0214
26.1228
27.2665
28.4537
29.685
30.9613
32.2838
33.6532
35.0697
36.5345
38.0476
39.6098
41.2206
42.8809
44.5908
46.3495
48.1586
50.0149
51.9193
53.8696
55.8676
57.911
59.9975
62.1247
64.2936
66.5008
68.7438
71.0229
73.3332
75.6712
78.0375
80.4291
82.8399
85.2693
87.7159
90.1733
92.6402
95.1152
97.5934
100.077
102.561
105.037
107.518
110.014
112.615
115.431
118.531
121.772
124.921
127.818
130.454
132.928
135.302
137.634
139.911
142.154
144.286
146.377
148.329
150.349
152.982
118.628
31.1581
0.318129
0.308874
4.27948
5.69498
5.9662
6.17728
6.45909
6.76675
7.08652
7.4195
7.76721
8.13053
8.51022
8.90712
9.32208
9.75594
10.2096
10.6838
11.1797
11.6979
12.2395
12.8054
13.3966
14.014
14.6587
15.3316
16.034
16.7667
17.5308
18.3275
19.1579
20.0228
20.9238
21.8616
22.8374
23.8523
24.9073
26.0038
27.1422
28.3237
29.5494
30.8201
32.137
33.5002
34.9106
36.369
37.8757
39.4311
41.035
42.6886
44.3922
46.1439
47.9454
49.795
51.6924
53.6364
55.6271
57.6628
59.7429
61.8639
64.0266
66.2287
68.4639
70.7357
73.0399
75.3738
77.7354
80.1219
82.5301
84.9556
87.3989
89.8534
92.3161
94.7913
97.2675
99.7445
102.23
104.708
107.183
109.683
112.297
115.127
118.228
121.464
124.62
127.524
130.175
132.667
135.063
137.423
139.728
142
144.174
146.302
148.263
150.3
152.978
119.192
31.9706
2.51054
0.610635
4.07146
5.65062
5.95028
6.15149
6.42814
6.73431
7.05272
7.38409
7.73004
8.09148
8.46921
8.86404
9.27682
9.70842
10.1596
10.6313
11.1245
11.64
12.1787
12.7415
13.3295
13.9436
14.5848
15.2542
15.9528
16.6816
17.4416
18.2341
19.06
19.9204
20.8165
21.7495
22.7202
23.7298
24.7795
25.8702
27.0028
28.1783
29.398
30.6623
31.9724
33.3292
34.7332
36.1846
37.6839
39.2325
40.829
42.4754
44.171
45.9154
47.709
49.5509
51.4414
53.378
55.3614
57.3898
59.4619
61.5766
63.7314
65.9263
68.1565
70.422
72.7208
75.0494
77.4037
79.7845
82.1887
84.6102
87.0479
89.5004
91.9621
94.432
96.909
99.3864
101.869
104.347
106.825
109.325
111.946
114.789
117.888
121.128
124.286
127.204
129.867
132.377
134.794
137.175
139.518
141.837
144.055
146.232
148.211
150.272
152.969
119.315
32.7329
1.38913
0.0870399
3.86552
5.59328
5.93067
6.12262
6.39327
6.6977
7.01469
7.34426
7.68822
8.04756
8.42312
8.81565
9.22597
9.65499
10.1035
10.5725
11.0626
11.575
12.1105
12.67
13.2545
13.8649
14.5023
15.1677
15.8621
16.5865
17.3421
18.1299
18.9509
19.8065
20.6974
21.6249
22.59
23.5938
24.6374
25.7219
26.8483
28.0174
29.2302
30.4878
31.7909
33.1399
34.536
35.98
37.4718
39.0126
40.6016
42.2399
43.9273
45.664
47.4496
49.2833
51.1645
53.0931
55.0684
57.0887
59.1533
61.26
63.4076
65.5944
67.8184
70.0776
72.3696
74.692
77.0432
79.4198
81.8177
84.2333
86.6664
89.114
91.5756
94.0444
96.5178
98.9923
101.474
103.952
106.43
108.933
111.56
114.411
117.516
120.756
123.927
126.854
129.534
132.061
134.502
136.915
139.292
141.653
143.917
146.144
148.158
150.258
152.975
120.261
33.4641
0.408513
0.284543
3.67904
5.524
5.90704
6.09084
6.35458
6.6569
6.97227
7.29985
7.64165
7.99874
8.37185
8.76178
9.16946
9.59567
10.0413
10.5071
10.994
11.503
12.0349
12.5907
13.1714
13.7777
14.4109
15.0719
15.7618
16.4815
17.2321
18.0148
18.8305
19.6806
20.566
21.4877
22.4467
23.4442
24.4812
25.5589
26.6785
27.8407
29.0462
30.296
31.5914
32.933
34.3211
35.7567
37.24
38.7724
40.353
41.9828
43.6617
45.389
47.1651
48.9898
50.8627
52.7823
54.7498
56.7614
58.8172
60.9148
63.0558
65.2349
67.4515
69.7033
71.989
74.3035
76.6473
79.0181
81.4116
83.8225
86.254
88.6983
91.1545
93.6185
96.0906
98.5675
101.047
103.525
106.004
108.515
111.15
114.01
117.117
120.358
123.532
126.476
129.171
131.713
134.178
136.624
139.04
141.445
143.766
146.05
148.101
150.27
152.929
120.618
34.1506
2.81931
0.573125
3.48812
5.4465
5.87989
6.05676
6.31228
6.61184
6.92541
7.25087
7.59029
7.94482
8.31529
8.70247
9.1072
9.53033
9.97268
10.4351
10.9185
11.4239
11.9519
12.5036
13.0801
13.6821
14.3107
14.967
15.6518
16.3664
17.1117
17.8888
18.6989
19.543
20.4223
21.3378
22.2904
23.2812
24.3111
25.3816
26.4935
27.648
28.8457
30.0875
31.3744
32.7073
34.0867
35.5139
36.9884
38.5112
40.083
41.7033
43.3722
45.0901
46.8573
48.6728
50.5367
52.4465
54.404
56.4057
58.4528
60.5424
62.674
64.8452
67.0535
69.2977
71.5766
73.8862
76.2242
78.5868
80.9748
83.3826
85.807
88.2465
90.7005
93.1643
95.6324
98.1058
100.585
103.065
105.546
108.061
110.706
113.58
116.687
119.925
123.104
126.06
128.775
131.342
133.837
136.315
138.769
141.221
143.598
145.945
148.048
150.302
152.903
121.901
34.8016
1.90057
0.465932
3.29289
5.36131
5.84988
6.02116
6.26717
6.56285
6.8742
7.1973
7.53418
7.886
8.25361
8.63779
9.03935
9.45916
9.89808
10.3569
10.8366
11.3379
11.8618
12.4092
12.9812
13.5785
14.2022
14.8534
15.533
16.2421
16.9817
17.7529
18.5568
19.3941
20.2663
21.1749
22.1207
23.1043
24.1267
25.1896
26.2934
27.4395
28.6288
29.8618
31.1399
32.4637
33.8338
35.2512
36.7162
38.2295
39.7912
41.4014
43.0602
44.7684
46.5253
48.3301
50.1839
52.0836
54.0307
56.0225
58.0604
60.1406
62.2631
64.4245
66.6252
68.8598
71.1313
73.4331
75.7635
78.121
80.5036
82.9051
85.328
87.7642
90.2116
92.6703
95.1413
97.6202
100.102
102.578
105.059
107.582
110.239
113.117
116.222
119.463
122.642
125.616
128.357
130.944
133.462
135.974
138.477
140.974
143.414
145.829
147.992
150.345
152.854
122.767
35.425
0.83866
0.198529
3.12835
5.26492
5.81471
5.98423
6.22018
6.51081
6.81928
7.13983
7.47404
7.823
8.18756
8.56856
8.9668
9.38311
9.81838
10.2734
10.749
11.2462
11.7657
12.3087
12.8759
13.4683
14.087
14.7328
15.4068
16.1102
16.8438
17.6091
18.406
19.2355
20.0995
20.9999
21.9377
22.9137
23.9283
24.9829
26.0783
27.2154
28.3956
29.6191
30.8878
32.202
33.5619
34.9692
36.4237
37.9266
39.4777
41.0775
42.7258
44.4228
46.1684
47.9622
49.805
51.694
53.6315
55.6128
57.6399
59.7092
61.8227
63.9748
66.167
68.3932
70.6547
72.9477
75.2707
77.6212
79.9984
82.3968
84.8125
87.2399
89.6869
92.1523
94.6251
97.1028
99.5821
102.062
104.544
107.072
109.742
112.63
115.727
118.958
122.149
125.139
127.904
130.512
133.059
135.602
138.152
140.704
143.207
145.693
147.924
150.38
152.81
124.042
3.51347
0.104172
2.95328
5.15898
5.77243
5.94469
6.17133
6.45675
6.76198
7.07956
7.41086
7.75687
8.1183
8.49601
8.89081
9.30346
9.73491
10.1859
10.6575
11.1503
11.6653
12.2035
12.7658
13.3531
13.9664
14.6067
15.2749
15.9723
16.6995
17.4586
18.248
19.069
19.924
20.8146
21.7425
22.709
23.715
24.7611
25.8475
26.9755
28.146
29.3596
30.6181
31.9219
33.2715
34.6678
36.1113
37.6028
39.1428
40.7309
42.367
44.0528
45.7877
47.5701
49.401
51.2787
53.2037
55.1737
57.1903
59.2497
61.352
63.4932
65.6747
67.8923
70.1449
72.4292
74.7436
77.0879
79.4584
81.8484
84.2605
86.6856
89.1346
91.6084
94.0834
96.5579
99.0339
101.513
103.995
106.53
109.206
112.094
115.194
118.416
121.614
124.625
127.413
130.049
132.623
135.199
137.794
140.404
142.978
145.538
147.847
150.418
152.755
125.787
0.14851
2.75884
5.03526
5.72189
5.90073
6.11896
6.4003
6.70269
7.01721
7.34537
7.6882
8.04634
8.42055
8.81169
9.22053
9.64796
10.0948
10.5619
11.0501
11.5603
12.0935
12.6505
13.2323
13.84
14.4743
15.1364
15.8273
16.5479
17.2999
18.0812
18.8946
19.741
20.6208
21.537
22.4925
23.4883
24.5244
25.601
26.7192
27.8799
29.083
30.3307
31.6233
32.9615
34.3466
35.7784
37.2581
38.7854
40.3615
41.986
43.6595
45.3816
47.1515
48.97
50.8365
52.7492
54.7079
56.7113
58.7587
60.8494
62.9802
65.1519
67.3575
69.5993
71.8764
74.1833
76.5196
78.8828
81.2693
83.6733
86.0959
88.5577
91.0404
93.5103
95.9768
98.4471
100.925
103.41
105.951
108.633
111.518
114.604
117.825
121.033
124.068
126.885
129.543
132.145
134.754
137.391
140.059
142.719
145.364
147.759
150.449
152.679
127.752
5.66352
5.85116
6.06129
6.33949
6.63981
6.95125
7.27602
7.61538
7.96991
8.34033
8.72746
9.13215
9.55519
9.99745
10.4597
10.9429
11.448
11.9756
12.5269
13.1027
13.7042
14.332
14.9873
15.6712
16.3846
17.1283
17.9016
18.7092
19.5483
20.4182
21.3232
22.2667
23.2501
24.2742
25.3397
26.447
27.5968
28.7893
30.0258
31.3069
32.633
34.0061
35.4252
36.8922
38.407
39.97
41.5817
43.242
44.951
46.7079
48.5127
50.3667
52.2668
54.2124
56.2025
58.2374
60.316
62.436
64.5955
66.7907
69.024
71.2945
73.5944
75.9234
78.2777
80.6565
83.0546
85.4819
87.9581
90.4401
92.895
95.3472
97.8165
100.294
102.78
105.321
108.005
110.887
113.969
117.19
120.406
123.459
126.299
128.984
131.613
134.261
136.95
139.674
142.419
145.16
147.664
150.483
152.603
130.25
5.79501
5.99827
6.27217
6.57003
6.8786
7.19979
7.5353
7.88582
8.25205
8.6348
9.03487
9.45309
9.89032
10.3473
10.8251
11.3243
11.846
12.3911
12.9604
13.555
14.1757
14.8238
15.4999
16.2057
16.9397
17.7064
18.5088
19.3402
20.2027
21.0997
22.0325
23.0025
24.0124
25.0645
26.1594
27.2972
28.478
29.7024
30.9713
32.2849
33.645
35.0514
36.5053
38.0066
39.556
41.1539
42.8001
44.4951
46.2383
48.0299
49.8694
51.7555
53.6869
55.6627
57.685
59.7511
61.8588
64.0061
66.1909
68.4197
70.6859
72.9808
75.3016
77.6474
80.0157
82.4083
84.8465
87.3302
89.7901
92.221
94.6621
97.1304
99.6104
102.099
104.64
107.325
110.205
113.284
116.508
119.734
122.809
125.676
128.383
131.038
133.717
136.457
139.251
142.084
144.925
147.559
150.526
152.513
132.588
5.92995
6.19657
6.49088
6.79651
7.11403
7.44537
7.79151
8.15317
8.53114
8.92622
9.33923
9.77101
10.2223
10.6941
11.1871
11.7024
12.2407
12.803
13.3903
14.0035
14.6436
15.3116
16.0089
16.733
17.4977
18.2917
19.1136
19.9706
20.8627
21.7868
22.7448
23.7411
24.7786
25.8588
26.9824
28.1498
29.3612
30.6168
31.9174
33.2639
34.6569
36.0971
37.5839
39.1192
40.7024
42.3343
44.015
45.7428
47.5195
49.3441
51.2153
53.1322
55.0953
57.1042
59.1582
61.2528
63.3849
65.5633
67.793
70.0548
72.3381
74.6449
76.9806
79.3413
81.7343
84.1821
86.6597
89.0777
91.4871
93.9289
96.399
98.8791
101.369
103.911
106.592
109.473
112.559
115.784
119.011
122.1
124.993
127.73
130.418
133.135
135.926
138.782
141.716
144.665
147.442
150.572
152.435
135.363
17.2766
18.0557
18.8712
19.7226
20.6079
21.5231
22.4723
23.4589
24.4835
25.5481
26.6558
27.8077
29.0039
30.2449
31.5315
32.8634
34.241
35.6665
37.1387
38.6591
40.2272
41.8431
43.5081
45.221
46.9824
48.7906
50.6465
52.5487
54.5006
56.4985
58.5399
60.6211
62.7391
64.9175
67.1478
69.3973
71.6614
73.9502
76.275
78.6258
81.0218
83.4708
85.9111
88.2874
90.694
93.1445
95.6144
98.0935
100.58
103.121
105.811
108.7
111.786
115.002
118.232
121.34
124.261
127.024
129.74
132.49
135.333
138.262
141.3
144.363
147.307
150.623
152.37
137.151
18.6163
19.4613
20.3344
21.2384
22.1808
23.1613
24.1752
25.2264
26.319
27.4541
28.6333
29.8582
31.1293
32.4454
33.8071
35.2161
36.6717
38.1756
39.728
41.3277
42.9754
44.6717
46.4174
48.2076
50.0476
51.9404
53.8862
55.8733
57.8991
59.9621
62.0688
64.2504
66.4708
68.691
70.9304
73.2054
75.5192
77.8615
80.261
82.6902
19.1827
20.0402
20.9366
21.8719
22.844
23.8469
24.8881
25.9686
27.0886
28.2516
29.4601
30.7147
32.0133
33.357
34.747
36.1843
37.6697
39.2048
40.7877
42.4183
44.0972
45.8264
47.5974
49.4225
51.3112
53.2519
55.2234
57.2299
59.2706
61.3723
63.5563
65.7428
67.9242
70.1407
72.4055
74.7088
77.045
79.436
20.6217
21.5486
22.5059
23.4958
24.5287
25.5979
26.7062
27.8561
29.0492
30.2854
31.5664
32.8932
34.2634
35.6801
37.1453
38.6613
40.226
41.8386
43.5
45.2115
46.961
48.7779
50.6662
52.5936
54.5399
56.5191
58.539
60.6376
62.8011
64.9323
67.085
69.2938
71.5539
73.8485
76.1744
21.2063
22.1447
23.1266
24.148
25.2028
26.3012
27.4401
28.6177
29.835
31.1007
32.4117
33.7639
35.1605
36.6059
38.1013
39.6468
41.2407
42.883
44.5763
46.3037
48.1237
50.0034
51.8986
53.8088
55.7581
57.7605
59.8508
22.7434
23.7436
24.7869
25.8738
26.9972
28.1562
29.3573
30.611
31.9057
33.242
34.6227
36.0492
37.5239
39.0484
40.6225
42.2454
43.9183
45.6248
47.4521
49.2967
51.1424
53.0167
54.9434
56.9323
24.3554
25.4223
26.5235
27.6615
28.856
30.0953
31.3697
32.6915
34.0586
35.4674
36.9218
38.4254
39.9784
41.5802
43.2307
44.9204
28.3375
29.5489
30.8061
32.1135
33.4613
34.8494
36.2838
37.7664
39.2972
40.8762
42.5035
44.1745
30.2235
31.507
32.8264
34.1917
35.6051
37.0661
38.5739
40.1292
41.7316
43.3818
108.854
109.432
110.24
108.32
108.601
109.002
109.573
110.368
111.333
112.378
113.344
114.071
114.463
114.53
114.309
113.804
112.852
110.649
107.273
105.704
106.02
63.5361
106.795
107.072
107.347
107.62
107.893
108.161
108.441
108.736
109.123
109.678
110.47
111.463
112.546
113.549
114.3
114.697
114.757
114.525
113.993
112.911
110.342
106.863
105.791
105.523
62.1979
105.643
105.949
106.247
106.538
106.836
107.126
107.411
107.693
107.977
108.259
108.537
108.837
109.218
109.772
110.563
111.572
112.688
113.728
114.51
114.918
114.976
114.735
114.184
112.937
109.998
106.482
105.894
105.273
61.1619
104.296
104.645
104.983
105.315
105.647
105.959
106.262
106.564
106.86
107.152
107.443
107.736
108.03
108.325
108.619
108.924
109.302
109.855
110.647
111.678
112.835
113.915
114.724
115.145
115.212
114.978
114.403
112.937
109.67
106.272
106.098
105.253
60.3189
103.129
103.519
103.9
104.277
104.629
104.973
105.31
105.631
105.95
106.259
106.563
106.868
107.171
107.471
107.77
108.072
108.376
108.68
108.995
109.38
109.93
110.722
111.775
112.975
114.099
114.94
115.381
115.461
115.234
114.626
112.886
109.335
106.214
106.427
105.416
59.7682
102.261
102.683
103.104
103.5
103.882
104.248
104.601
104.944
105.281
105.61
105.933
106.249
106.56
106.87
107.179
107.489
107.794
108.102
108.416
108.731
109.05
109.435
109.99
110.792
111.872
113.119
114.286
115.16
115.627
115.73
115.523
114.861
112.788
108.966
106.193
106.873
105.678
59.3025
101.316
101.776
102.232
102.661
103.068
103.463
103.846
104.214
104.572
104.919
105.257
105.589
105.916
106.235
106.549
106.863
107.178
107.492
107.806
108.121
108.441
108.766
109.098
109.489
110.046
110.861
111.972
113.27
114.484
115.394
115.892
116.029
115.843
115.109
112.682
108.603
106.307
107.45
106.011
59.09
99.2413
99.7829
100.303
100.801
101.293
101.756
102.195
102.619
103.032
103.43
103.811
104.181
104.541
104.89
105.231
105.565
105.891
106.213
106.535
106.856
107.172
107.491
107.811
108.132
108.459
108.792
109.135
109.534
110.095
110.921
112.068
113.423
114.69
115.638
116.179
116.36
116.203
115.382
112.62
108.346
106.584
108.166
106.467
58.9252
96.8165
97.4524
98.0641
98.6489
99.223
99.7653
100.284
100.781
101.256
101.716
102.161
102.591
103.001
103.395
103.778
104.148
104.509
104.859
105.202
105.537
105.866
106.193
106.518
106.84
107.16
107.485
107.811
108.138
108.473
108.811
109.158
109.565
110.137
110.985
112.173
113.589
114.912
115.902
116.491
116.736
116.636
115.736
112.696
108.417
107.04
108.949
107.126
58.819
94.7304
95.44
96.1255
96.7989
97.4356
98.0465
98.6302
99.1893
99.7311
100.247
100.746
101.228
101.689
102.132
102.556
102.966
103.364
103.75
104.118
104.479
104.832
105.176
105.512
105.842
106.172
106.501
106.825
107.148
107.474
107.802
108.136
108.477
108.824
109.18
109.596
110.17
111.046
112.285
113.755
115.151
116.191
116.83
117.153
117.149
116.228
112.934
108.851
107.804
109.796
107.851
58.787
93.1966
93.9677
94.7199
95.4307
96.1156
96.7726
97.4079
98.0163
98.5986
99.1615
99.7027
100.221
100.72
101.197
101.655
102.099
102.527
102.939
103.336
103.719
104.091
104.454
104.806
105.148
105.486
105.817
106.147
106.478
106.806
107.132
107.461
107.794
108.131
108.475
108.826
109.192
109.618
110.212
111.118
112.399
113.934
115.407
116.498
117.196
117.613
117.748
116.899
113.375
109.575
108.744
110.688
108.426
58.7947
34.5039
35.7643
37.0482
38.3572
39.6893
41.044
42.4194
43.8151
45.2283
46.6569
48.1004
49.5564
51.0234
52.4989
53.9781
55.4626
56.9491
58.434
59.917
61.3943
62.863
64.3229
65.7714
67.2064
68.6253
70.0252
71.4054
72.7657
74.1027
75.4127
76.6994
77.9587
79.19
80.3924
81.5633
82.7054
83.8162
84.8958
85.9421
86.9563
87.9407
88.892
89.8109
90.6986
91.5571
92.3845
93.1927
93.9613
94.6973
95.41
96.0954
96.7532
97.3875
97.996
98.5796
99.1395
99.6793
100.195
100.693
101.173
101.633
102.075
102.502
102.916
103.313
103.693
104.066
104.429
104.781
105.125
105.461
105.793
106.126
106.458
106.786
107.115
107.447
107.785
108.125
108.472
108.828
109.199
109.638
110.253
111.193
112.531
114.123
115.679
116.837
117.583
118.09
118.399
117.714
114.017
110.366
109.633
111.589
108.92
58.8595
34.5148
35.7743
37.0582
38.367
39.6995
41.0542
42.43
43.8257
45.2389
46.668
48.1112
49.5672
51.0343
52.5091
53.9883
55.4718
56.9589
58.4444
59.9265
61.4026
62.8714
64.3322
65.7796
67.2134
68.6325
70.032
71.4124
72.7729
74.1097
75.4204
76.7053
77.9646
79.1952
80.3962
81.5684
82.708
83.8172
84.8974
85.945
86.9592
87.9423
88.893
89.8111
90.7009
91.558
92.3815
93.1769
93.9468
94.6867
95.3977
96.0821
96.74
97.3732
97.9817
98.5638
99.1246
99.6631
100.179
100.675
101.151
101.61
102.053
102.477
102.889
103.287
103.671
104.043
104.404
104.756
105.1
105.438
105.77
106.101
106.433
106.764
107.095
107.428
107.769
108.113
108.464
108.824
109.202
109.656
110.295
111.271
112.665
114.318
115.949
117.19
117.976
118.552
119.031
118.522
114.818
111.076
110.299
112.395
109.477
59.0301
34.5125
35.7727
37.0565
38.3653
39.6974
41.052
42.4276
43.8228
45.2359
46.6652
48.1084
49.5647
51.0305
52.5047
53.9849
55.4684
56.9541
58.4385
59.9208
61.398
62.8668
64.3267
65.7747
67.2081
68.6265
70.0258
71.4054
72.7653
74.1004
75.4114
76.698
77.9571
79.1864
80.3855
81.5579
82.6994
83.8094
84.8883
85.9347
86.9491
87.9317
88.8822
89.8002
90.6886
91.5457
92.3721
93.1688
93.9388
94.6808
95.3917
96.0739
96.7298
97.362
97.9704
98.5551
99.1138
99.6511
100.171
100.668
101.143
101.6
102.041
102.466
102.876
103.272
103.654
104.025
104.386
104.739
105.082
105.418
105.749
106.08
106.411
106.741
107.073
107.407
107.751
108.1
108.453
108.818
109.208
109.675
110.34
111.355
112.808
114.524
116.209
117.543
118.366
118.97
119.536
119.103
115.587
111.808
110.745
112.98
109.993
59.2021
34.511
35.7738
37.0578
38.3659
39.6981
41.0534
42.4293
43.8241
45.2364
46.6655
48.1093
49.5652
51.031
52.5049
53.9849
55.4689
56.9547
58.4389
59.9205
61.3972
62.866
64.3249
65.7721
67.2063
68.6242
70.0238
71.4054
72.7642
74.0985
75.4109
76.6958
77.9521
79.1836
80.3851
81.5574
82.6982
83.8067
84.8861
85.9325
86.9461
87.928
88.8801
89.8007
90.6893
91.5464
92.3727
93.1683
93.9371
94.678
95.3892
96.0732
96.7308
97.3625
97.9692
98.5529
99.1153
99.6526
100.168
100.665
101.142
101.6
102.04
102.463
102.873
103.268
103.649
104.017
104.375
104.722
105.063
105.4
105.73
106.057
106.385
106.714
107.047
107.385
107.73
108.081
108.438
108.81
109.21
109.697
110.386
111.44
112.954
114.729
116.45
117.875
118.761
119.336
119.843
119.345
116.036
112.293
111.004
113.287
110.17
59.3329
34.5127
35.7741
37.0579
38.3665
39.6983
41.0531
42.4289
43.8238
45.2366
46.6652
48.1087
49.5645
51.03
52.5043
53.9842
55.468
56.9528
58.4372
59.9195
61.3961
62.8649
64.3239
65.772
67.2071
68.6249
70.0227
71.4022
72.7627
74.0982
75.4087
76.6942
77.9524
79.1831
80.384
81.5548
82.6972
83.8076
84.8839
85.9302
86.9472
87.9294
88.8807
89.8022
90.6905
91.5461
92.3749
93.1731
93.9392
94.6799
95.3919
96.0763
96.7326
97.3662
97.9765
98.5611
99.1213
99.6588
100.177
100.673
101.15
101.609
102.047
102.468
102.874
103.269
103.649
104.015
104.372
104.72
105.058
105.391
105.719
106.044
106.369
106.693
107.026
107.365
107.709
108.061
108.424
108.801
109.214
109.721
110.437