/*--------------------------------*- C++ -*----------------------------------*\
  =========                 |
  \\      /  F ield         | OpenFOAM: The Open Source CFD Toolbox
   \\    /   O peration     | Website:  https://openfoam.org
    \\  /    A nd           | Version:  9
     \\/     M anipulation  |
\*---------------------------------------------------------------------------*/
FoamFile
{
    format      ascii;
    class       volScalarField;
    location    "750";
    object      p;
}
// * * * * * * * * * * * * * * * * * * * * * * * * * * * * * * * * * * * * * //

dimensions      [0 2 -2 0 0 0 0];

internalField   nonuniform List<scalar> 
13538
(
0.00110776
0.00108856
0.00107208
0.0010457
0.0010228
0.000994784
0.000968555
0.000938856
0.000909402
0.000876805
0.000843035
0.000805834
0.000766105
0.000722283
0.00067461
0.000621932
0.000564099
0.000500169
0.000429767
0.000352073
0.000266578
0.000172523
6.93173e-05
-4.3762e-05
-0.000167356
-0.000302185
-0.000448918
-0.000608274
-0.000780939
-0.000967616
-0.00116899
-0.00138574
-0.00161845
-0.00186773
-0.00213406
-0.00241784
-0.00271936
-0.00303878
-0.00337607
-0.00373113
-0.00410353
-0.00449287
-0.00489841
-0.00531938
-0.00575478
-0.00620372
-0.00666497
-0.00713675
-0.00761782
-0.00810674
-0.00860161
-0.00910067
-0.00960193
-0.0101031
-0.0106021
-0.0110963
-0.0115841
-0.0120633
-0.0125319
-0.0129892
-0.0134353
-0.0138703
-0.0142969
-0.0147193
-0.0151422
-0.0155735
-0.0160239
-0.0165061
-0.0170351
-0.0176293
-0.0183095
-0.0191004
-0.0200277
-0.0211237
-0.0224203
-0.023951
-0.0257591
-0.0278809
-0.0303632
-0.0332381
-0.0365668
-0.0403647
-0.0447055
-0.0495558
-0.0550553
-0.0610315
-0.067773
-0.0748323
-0.0828063
-0.0907249
-0.0998744
-0.108183
-0.118494
-0.126448
-0.137942
-0.141961
-0.153534
-0.174454
-0.195583
0.00111608
0.00110084
0.00108611
0.0010636
0.00104183
0.00101658
0.000991422
0.000963818
0.000935537
0.000904799
0.000872429
0.000837137
0.000799167
0.000757523
0.0007121
0.000662074
0.00060712
0.000546509
0.000479784
0.000406264
0.000325419
0.000236594
0.000139208
3.26239e-05
-8.37601e-05
-0.000210584
-0.000348461
-0.000498028
-0.000659891
-0.000834655
-0.00102292
-0.00122525
-0.00144213
-0.00167404
-0.00192134
-0.00218434
-0.00246315
-0.00275786
-0.00306833
-0.00339431
-0.00373533
-0.00409088
-0.0044601
-0.00484217
-0.00523604
-0.00564063
-0.00605463
-0.00647647
-0.0069047
-0.00733769
-0.00777362
-0.00821075
-0.00864711
-0.00908029
-0.00950862
-0.00992973
-0.0103417
-0.0107428
-0.0111319
-0.0115078
-0.0118712
-0.0122228
-0.0125649
-0.0129028
-0.0132412
-0.0135881
-0.0139545
-0.0143532
-0.0147988
-0.015311
-0.0159095
-0.0166195
-0.0174687
-0.0184879
-0.0197118
-0.0211756
-0.0229207
-0.0249881
-0.0274287
-0.0302762
-0.0335982
-0.0374037
-0.0417893
-0.0467052
-0.0523257
-0.0584302
-0.065385
-0.0726347
-0.0809467
-0.0890812
-0.0987092
-0.107165
-0.118124
-0.125911
-0.138566
-0.143347
-0.158278
-0.170858
-0.186857
0.00112709
0.00111375
0.00110051
0.00108088
0.00106048
0.0010375
0.00101369
0.000987964
0.000961086
0.000932138
0.000901366
0.000868003
0.000831972
0.000792604
0.000749615
0.000702388
0.000650516
0.000593407
0.000530583
0.000461458
0.000385513
0.00030217
0.000210881
0.000111076
2.20191e-06
-0.000116313
-0.00024502
-0.000384479
-0.000535222
-0.000697771
-0.000872635
-0.00106027
-0.00126109
-0.00147545
-0.00170361
-0.00194577
-0.00220195
-0.00247211
-0.00275603
-0.00305336
-0.00336357
-0.00368603
-0.00401979
-0.00436399
-0.00471748
-0.00507901
-0.00544729
-0.00582066
-0.00619762
-0.00657646
-0.00695526
-0.0073322
-0.00770537
-0.00807248
-0.00843192
-0.00878148
-0.00911913
-0.00944351
-0.00975354
-0.0100487
-0.0103297
-0.0105975
-0.0108545
-0.0111058
-0.0113574
-0.0116173
-0.0118953
-0.012205
-0.0125613
-0.0129835
-0.0134932
-0.0141145
-0.014875
-0.0158071
-0.0169476
-0.0183301
-0.019999
-0.0219994
-0.0243814
-0.0271838
-0.0304785
-0.0342747
-0.0386861
-0.0436522
-0.0493714
-0.0555951
-0.0627518
-0.0701946
-0.0788345
-0.0872022
-0.0972896
-0.10596
-0.117548
-0.125363
-0.13887
-0.143753
-0.160666
-0.169634
-0.182726
0.00113994
0.00112777
0.00111599
0.00109869
0.00107982
0.00105881
0.00103653
0.00101256
0.000987236
0.000960049
0.000931
0.000899587
0.0008656
0.000828533
0.000788054
0.000743658
0.000694927
0.000641347
0.000582456
0.000517737
0.0004467
0.000368831
0.000283621
0.000190566
8.91591e-05
-2.1105e-05
-0.000140705
-0.000270132
-0.000409849
-0.000560285
-0.000721869
-0.000894967
-0.00107988
-0.00127687
-0.00148608
-0.00170762
-0.00194142
-0.0021873
-0.00244496
-0.00271394
-0.00299363
-0.00328331
-0.00358198
-0.00388864
-0.00420217
-0.00452115
-0.00484415
-0.00516958
-0.00549584
-0.00582109
-0.00614349
-0.00646111
-0.00677217
-0.00707414
-0.00736567
-0.00764457
-0.00790911
-0.00815807
-0.00839014
-0.00860545
-0.00880463
-0.00898911
-0.00916136
-0.00932641
-0.00949038
-0.00966113
-0.00984873
-0.0100675
-0.0103318
-0.0106599
-0.0110752
-0.0116017
-0.0122668
-0.0131049
-0.0141523
-0.0154434
-0.0170275
-0.0189502
-0.0212631
-0.0240073
-0.0272641
-0.0310437
-0.0354685
-0.0404711
-0.0462768
-0.0526161
-0.059971
-0.0676036
-0.0765675
-0.0851909
-0.0957426
-0.104675
-0.116859
-0.124815
-0.1391
-0.144187
-0.162259
-0.168069
-0.179275
0.00115428
0.00114275
0.00113216
0.00111676
0.00109939
0.00108015
0.00105943
0.00103715
0.00101345
0.000988018
0.000960769
0.000931338
0.000899472
0.000864769
0.000826886
0.000785392
0.000739884
0.000689912
0.000635041
0.000574809
0.000508767
0.00043645
0.000357403
0.000271172
0.000177309
7.53708e-05
-3.5061e-05
-0.000154401
-0.000283046
-0.000421341
-0.00056963
-0.000728185
-0.000897218
-0.0010769
-0.00126728
-0.00146835
-0.00167995
-0.0019018
-0.00213353
-0.00237457
-0.00262419
-0.00288163
-0.00314581
-0.00341566
-0.00368995
-0.00396718
-0.00424586
-0.00452435
-0.00480099
-0.00507386
-0.00534103
-0.00560055
-0.0058507
-0.00608906
-0.00631402
-0.00652368
-0.00671638
-0.00689101
-0.00704634
-0.00718265
-0.00730055
-0.00740188
-0.00748939
-0.00756787
-0.00764312
-0.00772348
-0.00781899
-0.00794381
-0.00811295
-0.00834376
-0.00865949
-0.00908477
-0.00964757
-0.0103828
-0.0113271
-0.0125174
-0.0140042
-0.0158332
-0.0180631
-0.0207374
-0.0239412
-0.0276896
-0.0321088
-0.0371376
-0.0430216
-0.0494647
-0.0570023
-0.0648344
-0.0741209
-0.0830205
-0.094056
-0.103269
-0.11606
-0.124245
-0.139244
-0.14447
-0.163161
-0.167131
-0.177209
0.00116975
0.00115863
0.00114902
0.00113524
0.00111929
0.00110168
0.00108253
0.00106189
0.00103984
0.00101618
0.000990781
0.000963368
0.000933686
0.000901398
0.000866174
0.000827636
0.000785411
0.000739101
0.000688304
0.000632608
0.000571605
0.000504881
0.000432029
0.000352649
0.000266349
0.000172747
7.14864e-05
-3.77835e-05
-0.000155382
-0.000281579
-0.00041663
-0.000560733
-0.000714004
-0.000876517
-0.00104825
-0.00122907
-0.00141871
-0.00161684
-0.001823
-0.0020365
-0.00225654
-0.00248225
-0.00271254
-0.00294619
-0.00318188
-0.0034181
-0.00365333
-0.00388578
-0.0041137
-0.00433522
-0.00454827
-0.0047509
-0.00494136
-0.00511739
-0.00527707
-0.00541874
-0.00554076
-0.00564204
-0.00572167
-0.00578004
-0.00581767
-0.00583614
-0.00583861
-0.00583
-0.00581602
-0.00580509
-0.00580721
-0.00583545
-0.00590576
-0.00603546
-0.00624744
-0.00656683
-0.00702131
-0.00764632
-0.00847958
-0.00956049
-0.0109378
-0.012662
-0.0147955
-0.0173839
-0.0205148
-0.0242133
-0.0286124
-0.0336536
-0.0396029
-0.0461369
-0.0538568
-0.0618828
-0.0714902
-0.0806834
-0.0921901
-0.101747
-0.11516
-0.123638
-0.139293
-0.144758
-0.163874
-0.166732
-0.175921
0.00118612
0.00117528
0.00116647
0.00115408
0.00113948
0.00112336
0.00110575
0.00108673
0.00106634
0.00104446
0.00102095
0.000995582
0.000968128
0.000938292
0.000905774
0.000870243
0.000831357
0.000788755
0.000742078
0.00069096
0.000635034
0.000573936
0.000507308
0.000434803
0.000356082
0.00027082
0.000178724
7.95105e-05
-2.70712e-05
-0.00014122
-0.000263105
-0.000392847
-0.000530474
-0.000675979
-0.00082924
-0.000990026
-0.00115801
-0.00133276
-0.00151369
-0.00170007
-0.00189102
-0.00208557
-0.00228258
-0.00248071
-0.00267857
-0.00287461
-0.00306722
-0.00325457
-0.00343479
-0.003606
-0.00376607
-0.00391306
-0.00404505
-0.0041599
-0.00425566
-0.0043306
-0.0043832
-0.00441246
-0.00441736
-0.00439852
-0.0043565
-0.00429261
-0.00421019
-0.00411433
-0.00401035
-0.00390691
-0.00381392
-0.00374376
-0.00371252
-0.00373766
-0.00384124
-0.0040492
-0.00439065
-0.00489843
-0.00561179
-0.00657238
-0.00783041
-0.00943936
-0.0114606
-0.013948
-0.0169893
-0.0206226
-0.0249826
-0.0300165
-0.0360077
-0.04263
-0.0505127
-0.0587331
-0.0686681
-0.078151
-0.0901642
-0.100086
-0.114131
-0.122986
-0.139289
-0.145065
-0.164485
-0.166909
-0.17531
0.00120319
0.00119259
0.00118443
0.00117327
0.00115993
0.00114522
0.00112911
0.00111167
0.00109294
0.00107284
0.00105124
0.00102795
0.00100276
0.000975416
0.000945648
0.000913157
0.00087764
0.000838781
0.000796258
0.000749746
0.000698922
0.000643468
0.000583076
0.000517446
0.000446294
0.000369357
0.000286397
0.000197196
0.000101576
-5.96374e-07
-0.000109414
-0.000224918
-0.000347062
-0.000475735
-0.000610739
-0.000751772
-0.000898407
-0.00105009
-0.00120621
-0.00136593
-0.00152831
-0.00169226
-0.00185657
-0.00201986
-0.00218066
-0.00233734
-0.00248822
-0.00263143
-0.00276494
-0.00288688
-0.00299515
-0.00308759
-0.00316232
-0.0032171
-0.00325016
-0.00325964
-0.00324414
-0.00320267
-0.00313392
-0.00303864
-0.00291736
-0.00277189
-0.00260526
-0.0024221
-0.0022275
-0.00203057
-0.00184077
-0.00167033
-0.00153523
-0.00145234
-0.00144385
-0.00153527
-0.00175709
-0.00214101
-0.00272678
-0.0035579
-0.00468592
-0.00616675
-0.00806281
-0.0104342
-0.0133723
-0.0169205
-0.0212193
-0.0262277
-0.0322372
-0.0389314
-0.0469578
-0.0553725
-0.0656231
-0.0754274
-0.0879452
-0.0982683
-0.112982
-0.122273
-0.139234
-0.145418
-0.16506
-0.167568
-0.175602
0.00122082
0.00121045
0.00120285
0.00119278
0.00118061
0.00116723
0.00115257
0.00113668
0.00111962
0.0011013
0.00108161
0.00106042
0.00103752
0.00101269
0.000985693
0.000956274
0.000924159
0.000889069
0.000850721
0.000808831
0.000763121
0.000713318
0.000659157
0.000600392
0.000536793
0.000468149
0.00039428
0.000315034
0.000230294
0.000140003
4.41317e-05
-5.72774e-05
-0.000164101
-0.000276145
-0.000393138
-0.000514684
-0.00064029
-0.000769314
-0.000901041
-0.00103456
-0.00116888
-0.00130283
-0.00143509
-0.00156428
-0.00168873
-0.00180687
-0.00191691
-0.00201686
-0.00210474
-0.00217848
-0.00223596
-0.00227502
-0.0022938
-0.00228988
-0.00226142
-0.0022067
-0.00212434
-0.00201311
-0.00187185
-0.00170132
-0.00150163
-0.00127505
-0.00102448
-0.000753736
-0.000468356
-0.000177337
0.000110473
0.000383178
0.000625014
0.000818381
0.000942423
0.00097201
0.000876291
0.000622918
0.000171439
-0.000521511
-0.00150851
-0.00284906
-0.00460626
-0.00684583
-0.00966254
-0.0131058
-0.0173225
-0.0222876
-0.0282903
-0.0350377
-0.0431884
-0.0517905
-0.0623455
-0.072478
-0.085508
-0.0962836
-0.111675
-0.121476
-0.139132
-0.145838
-0.165666
-0.168563
-0.176859
0.00123889
0.00122877
0.00122165
0.00121255
0.0012015
0.00118938
0.00117613
0.00116176
0.00114633
0.00112979
0.00111204
0.00109294
0.00107234
0.00105005
0.00102585
0.000999523
0.000970826
0.000939517
0.000905355
0.000868094
0.000827497
0.000783336
0.000735393
0.000683469
0.000627386
0.000566987
0.000502148
0.00043278
0.000358828
0.000280299
0.000197241
0.000109763
1.80668e-05
-7.75858e-05
-0.00017683
-0.000279195
-0.000384104
-0.000490848
-0.000598626
-0.000706461
-0.000813256
-0.000917787
-0.00101867
-0.00111446
-0.0012034
-0.00128385
-0.00135392
-0.00141156
-0.00145479
-0.00148143
-0.0014893
-0.00147615
-0.00144012
-0.00137878
-0.00129017
-0.00117241
-0.00102431
-0.000844445
-0.000631853
-0.000387056
-0.000109977
0.000197203
0.000531707
0.000889616
0.00126577
0.00165164
0.00203817
0.00241458
0.00276555
0.00307231
0.0033152
0.00346944
0.00350429
0.00338827
0.00307968
0.00253373
0.00169731
0.000510343
-0.00109462
-0.00318622
-0.00586144
-0.00918172
-0.013296
-0.018198
-0.0241611
-0.0309543
-0.0391927
-0.0479786
-0.0588176
-0.0692931
-0.0828595
-0.0941044
-0.110203
-0.120591
-0.138978
-0.146339
-0.166449
-0.169973
-0.178196
0.0012573
0.00124744
0.00124075
0.00123256
0.00122256
0.00121164
0.00119974
0.00118687
0.00117307
0.00115829
0.00114246
0.00112548
0.00110719
0.00108744
0.00106605
0.00104282
0.00101755
0.000990029
0.000960052
0.000927415
0.00089192
0.000853382
0.000811629
0.000766509
0.000717892
0.000665676
0.000609791
0.000550206
0.000486931
0.000420032
0.000349629
0.000275903
0.000199118
0.000119616
3.78459e-05
-4.5659e-05
-0.000130233
-0.000215102
-0.000299385
-0.000382045
-0.00046189
-0.000537616
-0.000607809
-0.000670889
-0.000725105
-0.000768694
-0.000799701
-0.000816071
-0.000815627
-0.000796251
-0.000755622
-0.000691527
-0.000601858
-0.000484317
-0.000336862
-0.000157419
5.52201e-05
0.000302507
0.000585343
0.000903558
0.00125718
0.00164408
0.00206185
0.00250664
0.00297355
0.00345511
0.00394171
0.00442248
0.00488373
0.0053069
0.00567219
0.00595494
0.00612547
0.00615243
0.0059931
0.00560268
0.00492771
0.00390595
0.0024691
0.00054114
-0.0019747
-0.00515251
-0.00913873
-0.0139501
-0.0198579
-0.0266621
-0.0349637
-0.0439312
-0.0550217
-0.0658655
-0.0799445
-0.0917079
-0.108562
-0.119594
-0.138763
-0.14688
-0.167422
-0.171819
-0.180113
0.00127597
0.0012664
0.0012601
0.00125274
0.00124374
0.00123397
0.0012234
0.00121199
0.00119978
0.00118676
0.00117286
0.00115798
0.001142
0.00112481
0.00110622
0.00108609
0.00106424
0.00104051
0.00101471
0.000986681
0.000956267
0.000923323
0.00088772
0.000849352
0.000808139
0.00076403
0.000717009
0.000667101
0.000614376
0.000558958
0.000501035
0.000440855
0.000378754
0.000315148
0.000250547
0.000185571
0.000120937
5.75003e-05
-3.75282e-06
-6.17395e-05
-0.00011521
-0.000162773
-0.000202947
-0.000234074
-0.000254342
-0.000261924
-0.000254799
-0.000230783
-0.000187758
-0.000123469
-3.54928e-05
7.84144e-05
0.000220443
0.000393013
0.000598093
0.000837899
0.00111372
0.00142715
0.00177906
0.00216967
0.00259875
0.0030645
0.00356524
0.00409681
0.0046542
0.00523106
0.00581862
0.00640524
0.00697797
0.00751899
0.00800943
0.00842489
0.00873655
0.00891137
0.00890719
0.00868136
0.00817779
0.00733367
0.00607834
0.00433186
0.00199583
-0.00101631
-0.0048493
-0.00954569
-0.0153686
-0.0221652
-0.0305018
-0.0396275
-0.0509456
-0.0621678
-0.0767371
-0.0890776
-0.106709
-0.11845
-0.138479
-0.147434
-0.168491
-0.17397
-0.182673
0.00129482
0.00128555
0.00127964
0.00127305
0.00126501
0.00125635
0.00124706
0.00123708
0.00122645
0.00121517
0.00120318
0.0011904
0.00117673
0.00116207
0.00114629
0.00112926
0.00111083
0.00109087
0.00106923
0.00104578
0.00102042
0.000993028
0.000963525
0.00093185
0.000897967
0.000861877
0.000823616
0.000783262
0.000740943
0.000696845
0.000651214
0.000604367
0.000556704
0.00050871
0.000460962
0.000414157
0.000369077
0.000326642
0.000287925
0.000254061
0.000226392
0.000206354
0.000195528
0.000195593
0.000208452
0.000235979
0.000280321
0.000343721
0.000428289
0.000536467
0.000670589
0.000833106
0.00102628
0.00125256
0.0015141
0.00181294
0.00215065
0.00252903
0.00294897
0.00341071
0.00391414
0.00445791
0.0050407
0.00565868
0.00630664
0.00697892
0.00766693
0.00836026
0.00904619
0.00970691
0.0103248
0.0108761
0.0113321
0.0116601
0.0118188
0.0117651
0.0114427
0.0107889
0.00972744
0.00818022
0.00604385
0.00321969
-0.000437413
-0.00498696
-0.0106928
-0.0174499
-0.0257918
-0.0350504
-0.0465719
-0.0581773
-0.0732252
-0.0861889
-0.104611
-0.117128
-0.138117
-0.147987
-0.169687
-0.176327
-0.185815
0.00131379
0.00130485
0.00129931
0.00129345
0.00128633
0.00127874
0.00127069
0.00126211
0.00125304
0.00124348
0.00123338
0.00122269
0.00121132
0.0011992
0.00118621
0.00117226
0.00115723
0.00114102
0.00112351
0.00110462
0.00108427
0.00106238
0.00103891
0.00101386
0.000987224
0.000959053
0.000929433
0.000898499
0.000866434
0.000833476
0.000799935
0.000766195
0.000732708
0.000700034
0.00066882
0.000639809
0.000613879
0.000591997
0.000575316
0.000565047
0.000562551
0.00056939
0.000587181
0.000617683
0.000662835
0.000724634
0.000805282
0.000907034
0.00103212
0.00118305
0.00136222
0.00157218
0.00181526
0.00209399
0.00241062
0.00276719
0.00316559
0.00360752
0.00409417
0.00462599
0.00520277
0.00582389
0.00648772
0.00719082
0.00792898
0.00869682
0.0094856
0.010286
0.0110859
0.0118685
0.0126161
0.0133059
0.0139096
0.0143951
0.0147236
0.014849
0.0147154
0.0142625
0.0134109
0.012076
0.0101574
0.00754834
0.004095
-0.000279052
-0.00583856
-0.0125107
-0.0208274
-0.0301911
-0.0418848
-0.0538692
-0.069379
-0.0830019
-0.102241
-0.115602
-0.137611
-0.148504
-0.171043
-0.178918
-0.189946
0.00133282
0.00132422
0.00131904
0.00131388
0.00130765
0.0013011
0.00129426
0.00128706
0.00127952
0.00127165
0.00126343
0.00125481
0.00124573
0.00123612
0.00122592
0.00121503
0.00120338
0.00119088
0.00117748
0.0011631
0.0011477
0.00113126
0.00111377
0.00109525
0.00107576
0.0010554
0.0010343
0.00101263
0.000990654
0.000968648
0.000946987
0.000926106
0.000906525
0.000888862
0.000873834
0.000862247
0.000855042
0.000853256
0.0008581
0.000870848
0.000892929
0.000925987
0.000971683
0.00103185
0.00110851
0.00120372
0.00131972
0.0014588
0.0016234
0.00181599
0.00203904
0.00229527
0.00258702
0.00291682
0.00328724
0.00370035
0.00415813
0.00466238
0.00521432
0.00581487
0.00646404
0.00716122
0.00790543
0.00869311
0.00952069
0.0103836
0.0112732
0.0121808
0.0130949
0.0140006
0.0148797
0.0157098
0.0164654
0.0171127
0.0176151
0.0179275
0.0179915
0.017749
0.0171206
0.0160154
0.0143327
0.0119617
0.00874223
0.00457191
-0.000801514
-0.00735865
-0.0156026
-0.0250369
-0.0368739
-0.0492074
-0.0651804
-0.0794974
-0.099568
-0.113842
-0.136956
-0.148938
-0.172488
-0.181719
-0.194321
0.00135185
0.00134362
0.0013388
0.00133431
0.00132893
0.00132339
0.00131773
0.00131187
0.00130584
0.00129965
0.00129329
0.00128672
0.0012799
0.00127279
0.00126534
0.00125749
0.00124919
0.00124038
0.00123104
0.00122112
0.00121063
0.00119956
0.00118796
0.00117589
0.00116345
0.00115077
0.00113805
0.00112551
0.00111343
0.00110218
0.00109217
0.00108389
0.00107793
0.00107497
0.00107577
0.00108122
0.0010923
0.00111014
0.00113598
0.00117119
0.00121724
0.00127584
0.00134873
0.00143778
0.0015451
0.00167281
0.00182324
0.0019987
0.00220173
0.00243488
0.00270069
0.00300192
0.00334112
0.00372087
0.00414368
0.00461193
0.00512775
0.00569292
0.00630901
0.00697699
0.00769727
0.00846936
0.00929264
0.0101642
0.0110808
0.0120379
0.0130283
0.0140435
0.0150723
0.0161012
0.0171125
0.0180848
0.0189943
0.0198082
0.0204891
0.0209939
0.0212645
0.0212422
0.0208477
0.0199896
0.0185612
0.0164466
0.0134876
0.00956067
0.00440591
-0.0019857
-0.010117
-0.0195761
-0.0315098
-0.0441817
-0.0605877
-0.0756181
-0.096541
-0.11179
-0.136168
-0.149228
-0.173961
-0.184536
-0.198887
0.00137084
0.00136298
0.00135854
0.00135468
0.00135015
0.00134558
0.00134107
0.00133653
0.00133198
0.00132744
0.00132291
0.00131837
0.00131379
0.00130916
0.00130444
0.00129959
0.0012946
0.00128945
0.00128411
0.0012786
0.00127294
0.00126718
0.00126139
0.00125567
0.00125016
0.00124504
0.00124055
0.00123696
0.0012346
0.00123389
0.00123529
0.00123936
0.00124673
0.00125813
0.00127441
0.00129649
0.00132542
0.00136239
0.00140871
0.0014658
0.00153523
0.00161869
0.00171802
0.0018352
0.00197235
0.00213168
0.00231556
0.0025264
0.00276679
0.00303942
0.00334688
0.00369197
0.00407728
0.00450561
0.00497955
0.00550157
0.00607401
0.00669885
0.00737771
0.00811178
0.00890178
0.00974776
0.010649
0.0116033
0.012608
0.0136585
0.0147488
0.0158712
0.0170151
0.0181676
0.0193118
0.0204285
0.0214935
0.0224759
0.0233401
0.0240423
0.0245272
0.024734
0.0245847
0.0239887
0.0228345
0.021
0.0183281
0.0146758
0.00978308
0.00359905
-0.00436973
-0.0137968
-0.0257944
-0.0387613
-0.0555758
-0.0713219
-0.0931303
-0.109411
-0.135121
-0.149315
-0.175419
-0.187262
-0.203436
0.00138975
0.00138227
0.0013782
0.00137497
0.00137124
0.00136763
0.00136425
0.001361
0.0013579
0.00135499
0.00135226
0.00134972
0.00134736
0.00134517
0.00134315
0.00134128
0.00133956
0.001338
0.00133663
0.00133546
0.00133457
0.00133403
0.00133395
0.00133447
0.00133578
0.00133808
0.00134166
0.00134685
0.00135402
0.00136362
0.00137619
0.00139233
0.00141272
0.00143816
0.00146953
0.00150784
0.00155418
0.00160979
0.00167604
0.00175444
0.0018466
0.00195427
0.00207934
0.00222384
0.00238999
0.00258003
0.00279645
0.00304169
0.00331842
0.00362941
0.0039773
0.00436497
0.00479519
0.00527084
0.0057946
0.00636912
0.00699674
0.00767976
0.00842003
0.00921888
0.0100773
0.0109957
0.0119737
0.0130097
0.0141013
0.0152446
0.0164343
0.0176629
0.0189212
0.0201975
0.0214754
0.0227369
0.0239592
0.025113
0.0261634
0.0270671
0.0277717
0.028216
0.0283234
0.0280037
0.0271402
0.0256123
0.0232522
0.019909
0.0153176
0.00938694
0.00163053
-0.00771069
-0.0197185
-0.0329153
-0.0501084
-0.0665628
-0.0893059
-0.106651
-0.133856
-0.14915
-0.176846
-0.189955
-0.20788
0.00140853
0.00140144
0.00139775
0.00139512
0.00139219
0.00138951
0.00138723
0.00138524
0.00138357
0.00138225
0.00138131
0.00138074
0.00138056
0.00138079
0.00138142
0.00138248
0.00138399
0.00138599
0.00138851
0.00139163
0.00139543
0.00140002
0.00140555
0.0014122
0.00142019
0.00142977
0.00144127
0.00145504
0.00147153
0.00149123
0.00151472
0.00154264
0.00157575
0.00161488
0.00166097
0.00171508
0.00177837
0.00185214
0.00193779
0.00203691
0.00215115
0.00228232
0.0024324
0.00260345
0.00279776
0.00301767
0.00326567
0.00354434
0.0038563
0.00420453
0.0045917
0.00502075
0.00549468
0.00601633
0.00658857
0.00721421
0.00789566
0.00863535
0.00943556
0.0102978
0.0112233
0.0122127
0.0132662
0.0143824
0.0155596
0.0167946
0.0180827
0.019417
0.0207894
0.0221886
0.0236006
0.0250077
0.0263883
0.0277144
0.0289532
0.0300633
0.0309933
0.0316829
0.0320563
0.032024
0.031469
0.0302688
0.0282479
0.0252465
0.0210004
0.0153664
0.00787597
-0.00130996
-0.0132569
-0.0266347
-0.0441814
-0.06129
-0.0849969
-0.103463
-0.132297
-0.148732
-0.17832
-0.192458
-0.21259
0.00142715
0.00142046
0.00141714
0.0014151
0.00141295
0.00141119
0.00140997
0.00140922
0.00140895
0.0014092
0.00141
0.00141138
0.00141336
0.00141596
0.00141921
0.00142316
0.00142785
0.00143334
0.0014397
0.00144702
0.00145543
0.00146506
0.0014761
0.00148876
0.0015033
0.00152
0.00153924
0.00156143
0.00158702
0.00161658
0.00165072
0.00169014
0.00173564
0.00178811
0.00184854
0.00191805
0.00199783
0.00208924
0.00219376
0.00231301
0.00244868
0.0026027
0.00277705
0.00297388
0.00319554
0.00344439
0.00372302
0.00403405
0.0043803
0.00476462
0.00518994
0.00565923
0.00617553
0.00674187
0.00736123
0.00803655
0.00877046
0.00956555
0.0104242
0.0113483
0.0123394
0.0133985
0.0145259
0.0157212
0.0169825
0.0183078
0.019693
0.021132
0.0226175
0.0241397
0.025685
0.0272374
0.0287765
0.0302766
0.0317054
0.0330244
0.0341838
0.0351255
0.035774
0.0360395
0.0358087
0.0349541
0.0333015
0.0306774
0.0268097
0.0215353
0.0143655
0.00540092
-0.00642142
-0.0199094
-0.0377438
-0.05549
-0.0801384
-0.0997741
-0.130405
-0.148014
-0.17998
-0.194886
-0.216826
0.00144556
0.00143928
0.00143635
0.00143488
0.00143348
0.00143261
0.00143245
0.00143291
0.00143401
0.0014358
0.00143832
0.00144161
0.0014457
0.00145064
0.00145647
0.00146327
0.00147108
0.00148
0.00149013
0.00150158
0.0015145
0.00152908
0.00154552
0.00156406
0.001585
0.00160868
0.00163549
0.00166588
0.00170037
0.00173954
0.00178407
0.0018347
0.00189227
0.00195772
0.0020321
0.00211657
0.00221238
0.00232094
0.00244377
0.00258257
0.00273906
0.00291521
0.0031131
0.00333493
0.00358311
0.00386001
0.00416832
0.00451078
0.0048902
0.00530958
0.00577184
0.00628016
0.00683761
0.00744739
0.00811251
0.00883611
0.00962097
0.01047
0.0113856
0.0123701
0.0134253
0.0145524
0.0157523
0.017025
0.0183695
0.0197837
0.0212644
0.0228069
0.0244046
0.0260481
0.0277263
0.0294239
0.0311214
0.0327952
0.0344162
0.0359458
0.037337
0.0385351
0.0394657
0.0400392
0.0401457
0.0396557
0.0383955
0.0361842
0.032737
0.0278725
0.0210911
0.0124078
0.000801122
-0.0127169
-0.0307606
-0.0491174
-0.0746713
-0.0955152
-0.128028
-0.146934
-0.181649
-0.19726
-0.221715
0.00145788
0.00145532
0.00145442
0.00145376
0.00145377
0.00145463
0.00145627
0.00145872
0.00146202
0.00146623
0.00147139
0.00147756
0.00148479
0.00149316
0.00150274
0.00151362
0.00152591
0.00153973
0.00155523
0.00157259
0.00159201
0.00161372
0.00163802
0.00166523
0.00169571
0.00172991
0.00176831
0.00181146
0.00186001
0.00191465
0.00197619
0.0020455
0.00212358
0.00221151
0.0023105
0.00242188
0.00254707
0.00268768
0.00284541
0.00302209
0.00321975
0.00344044
0.00368646
0.0039603
0.00426442
0.00460148
0.00497434
0.00538588
0.0058392
0.00633734
0.00688344
0.00748077
0.00813266
0.00884222
0.00961274
0.0104472
0.0113486
0.0123197
0.013363
0.0144807
0.0156744
0.0169452
0.0182936
0.0197193
0.021221
0.0227961
0.0244406
0.0261485
0.027913
0.0297225
0.0315639
0.0334198
0.0352678
0.0370808
0.0388222
0.0404481
0.0419056
0.0431235
0.0440148
0.0444711
0.0443647
0.0435167
0.0417443
0.0387609
0.0343561
0.028028
0.01972
0.00840518
-0.00504612
-0.0232153
-0.0421115
-0.0685794
-0.0906291
-0.125103
-0.145422
-0.183253
-0.199503
-0.227182
0.00147405
0.00147369
0.00147376
0.00147462
0.00147648
0.00147928
0.00148304
0.00148782
0.00149369
0.00150069
0.00150889
0.00151838
0.00152924
0.00154155
0.00155544
0.00157103
0.00158847
0.00160793
0.00162962
0.00165377
0.00168065
0.00171057
0.00174388
0.00178101
0.00182241
0.00186861
0.00192021
0.00197787
0.00204236
0.00211449
0.00219522
0.00228556
0.00238665
0.00249974
0.00262622
0.00276755
0.00292537
0.00310146
0.00329768
0.00351612
0.00375891
0.00402836
0.00432703
0.00465744
0.00502237
0.00542466
0.0058673
0.00635343
0.00688627
0.00746899
0.008105
0.00879767
0.0095503
0.0103663
0.011249
0.0122014
0.0132264
0.014327
0.0155055
0.0167642
0.0181042
0.0195268
0.0210322
0.0226195
0.0242873
0.0260319
0.0278488
0.0297319
0.0316717
0.0336559
0.0356686
0.0376901
0.0396951
0.0416489
0.0435115
0.0452315
0.0467411
0.0479566
0.0487726
0.0490636
0.0486511
0.0473463
0.0448641
0.0409702
0.0351548
0.0272958
0.0163721
0.00308352
-0.0151063
-0.0344304
-0.0617694
-0.0850546
-0.121618
-0.143416
-0.184685
-0.201589
-0.233543
0.00149514
0.00149798
0.00150191
0.00150695
0.00151318
0.00152066
0.00152947
0.00153967
0.00155136
0.00156465
0.00157965
0.00159648
0.0016153
0.00163628
0.00165962
0.00168554
0.00171431
0.00174622
0.00178163
0.0018209
0.0018645
0.00191291
0.0019667
0.00202651
0.00209304
0.00216709
0.00224953
0.00234132
0.00244356
0.00255741
0.00268417
0.00282527
0.00298223
0.00315673
0.00335058
0.00356572
0.00380425
0.0040684
0.00436052
0.00468319
0.00503904
0.00543086
0.00586161
0.00633432
0.00685228
0.00741861
0.00803678
0.00871018
0.00944235
0.0102368
0.0110969
0.0120262
0.0130281
0.0141056
0.0152619
0.0164997
0.0178215
0.0192292
0.0207243
0.0223074
0.0239786
0.0257372
0.0275805
0.0295047
0.0315046
0.0335723
0.0356977
0.0378658
0.0400591
0.0422548
0.0444214
0.0465204
0.0485046
0.0503103
0.0518553
0.0530392
0.0537389
0.0537803
0.0529692
0.0510246
0.0476929
0.0424553
0.0351339
0.0246894
0.0116823
-0.00641215
-0.0260797
-0.0541762
-0.0787035
-0.117461
-0.140846
-0.185889
-0.203433
-0.240437
0.00151908
0.00152412
0.00153042
0.00153807
0.00154713
0.0015577
0.00156985
0.00158371
0.00159938
0.00161699
0.0016367
0.00165868
0.00168312
0.00171024
0.0017403
0.00177357
0.00181039
0.00185113
0.00189621
0.0019461
0.00200134
0.00206251
0.0021303
0.00220544
0.00228876
0.00238119
0.00248372
0.00259748
0.00272369
0.00286369
0.00301894
0.00319101
0.00338164
0.00359267
0.00382609
0.00408406
0.00436883
0.00468286
0.00502874
0.00540914
0.00582696
0.0062852
0.006787
0.00733561
0.00793436
0.00858679
0.00929639
0.0100668
0.0109016
0.0118044
0.012779
0.0138288
0.0149573
0.0161677
0.0174631
0.0188465
0.02032
0.0218857
0.0235448
0.0252982
0.0271454
0.0290851
0.0311146
0.0332296
0.0354237
0.0376877
0.0400097
0.0423732
0.0447577
0.0471356
0.049471
0.0517193
0.0538218
0.0557013
0.0572598
0.0583759
0.0588865
0.0585952
0.0572203
0.0544928
0.0498914
0.0431901
0.0333357
0.0207414
0.00287439
-0.0169807
-0.0457748
-0.0714769
-0.11248
-0.137603
-0.18679
-0.205049
-0.247437
0.00154589
0.00155342
0.00156245
0.00157306
0.00158535
0.00159941
0.00161538
0.00163337
0.00165355
0.00167607
0.00170113
0.00172894
0.00175975
0.00179383
0.0018315
0.0018731
0.00191903
0.00196975
0.00202576
0.00208762
0.00215596
0.00223149
0.00231498
0.0024073
0.0025094
0.00262233
0.00274725
0.00288542
0.00303822
0.00320714
0.00339383
0.00360003
0.00382765
0.00407872
0.00435545
0.00466016
0.00499532
0.00536358
0.00576768
0.00621058
0.00669534
0.0072252
0.00780344
0.00843352
0.00911901
0.00986356
0.0106709
0.0115448
0.012489
0.0135074
0.0146036
0.0157814
0.0170444
0.0183958
0.0198391
0.0213767
0.0230112
0.0247445
0.0265779
0.0285119
0.0305458
0.0326784
0.0349062
0.0372241
0.0396249
0.0420979
0.0446301
0.0472015
0.0497883
0.0523584
0.0548705
0.0572692
0.0594839
0.0614215
0.0629648
0.0639565
0.064203
0.0634255
0.0613472
0.0574468
0.0514484
0.0422888
0.0302337
0.0127534
-0.00716403
-0.0364759
-0.0632907
-0.106554
-0.133568
-0.187234
-0.20638
-0.254927
0.00263409
0.00275708
0.00289279
0.00304252
0.00320768
0.00338982
0.00359061
0.00381185
0.00405549
0.00432359
0.0046184
0.00494232
0.00529785
0.00568768
0.00611464
0.00658174
0.00709206
0.00764897
0.00825581
0.00891609
0.00963353
0.0104118
0.0112548
0.0121665
0.0131507
0.0142114
0.0153526
0.0165783
0.0178922
0.019298
0.0207992
0.0223992
0.0241005
0.0259061
0.0278176
0.0298363
0.0319626
0.0341958
0.0365339
0.0389732
0.0415084
0.0441302
0.0468274
0.0495836
0.0523769
0.0551799
0.0579541
0.0606491
0.0631992
0.0655167
0.0674943
0.0689777
0.0697768
0.0696264
0.0682386
0.0650941
0.0598742
0.0515163
0.0401402
0.023197
0.00341224
-0.0262556
-0.0540738
-0.0995856
-0.128606
-0.187008
-0.207254
-0.262268
0.00303404
0.00319492
0.00337202
0.0035669
0.0037813
0.00401704
0.00427609
0.0045606
0.00487284
0.00521526
0.00559042
0.00600104
0.00645002
0.00694042
0.00747539
0.00805838
0.00869274
0.00938214
0.0101304
0.0109412
0.0118186
0.0127667
0.0137896
0.0148913
0.016076
0.017348
0.0187111
0.0201696
0.0217272
0.0233877
0.0251543
0.0270299
0.0290174
0.0311186
0.0333348
0.0356663
0.0381123
0.0406705
0.0433367
0.0461043
0.00334258
0.00353117
0.00373834
0.00396584
0.00421553