/*--------------------------------*- C++ -*----------------------------------*\
  =========                 |
  \\      /  F ield         | OpenFOAM: The Open Source CFD Toolbox
   \\    /   O peration     | Website:  https://openfoam.org
    \\  /    A nd           | Version:  9
     \\/     M anipulation  |
\*---------------------------------------------------------------------------*/
FoamFile
{
    format      ascii;
    class       surfaceScalarField;
    location    "750";
    object      phi;
}
// * * * * * * * * * * * * * * * * * * * * * * * * * * * * * * * * * * * * * //

dimensions      [0 3 -1 0 0 0 0];

internalField   nonuniform List<scalar> 
26826
(
0.00500794
-0.490615
0.48996
0.00524674
-0.462498
0.462259
0.00531267
-0.436163
0.436097
0.00523922
-0.411412
0.411485
0.00509685
-0.388037
0.38818
0.00488491
-0.366042
0.366254
0.00470784
-0.345322
0.345499
0.00446159
-0.32574
0.325987
0.00425023
-0.307331
0.307543
0.00400442
-0.289923
0.290169
0.00379349
-0.273516
0.273727
0.00358273
-0.258041
0.258252
0.00333767
-0.243429
0.243674
0.00316193
-0.22968
0.229856
0.00298639
-0.216691
0.216867
0.00278681
-0.204418
0.204617
0.00261849
-0.192866
0.193034
0.00245719
-0.18196
0.182121
0.00230981
-0.171676
0.171823
0.00216595
-0.161966
0.16211
0.00203595
-0.152812
0.152942
0.00190942
-0.144173
0.1443
0.0017898
-0.136025
0.136145
0.0016736
-0.128337
0.128453
0.00156772
-0.121088
0.121194
0.00146522
-0.114247
0.114349
0.00137301
-0.107796
0.107888
0.00128068
-0.101705
0.101797
0.00119515
-0.0959663
0.0960518
0.0011164
-0.0905494
0.0906281
0.00103749
-0.0854366
0.0855155
0.000965342
-0.0806178
0.0806899
0.000896461
-0.0760721
0.0761409
0.000830836
-0.0717821
0.0718478
0.000768483
-0.0677377
0.0678
0.00070935
-0.0639213
0.0639804
0.000653478
-0.0603192
0.0603751
0.000600827
-0.0569245
0.0569771
0.000551381
-0.0537232
0.0537727
0.000501722
-0.0506981
0.0507478
0.000455265
-0.0478491
0.0478955
0.000412085
-0.0451589
0.0452021
0.000368652
-0.0426205
0.0426639
0.000328488
-0.0402304
0.0402706
0.000291613
-0.0379714
0.0380083
0.000254563
-0.0358399
0.0358769
0.000220832
-0.0338323
0.0338661
0.000187008
-0.031935
0.0319688
0.000153045
-0.0301443
0.0301782
0.00012249
-0.0284602
0.0284908
9.19029e-05
-0.026862
0.0268926
6.4865e-05
-0.0253636
0.0253906
3.7786e-05
-0.0239405
0.0239676
1.42474e-05
-0.0226068
0.0226304
-1.16243e-05
-0.0213388
0.0213647
-3.49489e-05
-0.0201474
0.0201707
-5.70604e-05
-0.0190218
0.0190439
-7.82304e-05
-0.0179588
0.01798
-9.80162e-05
-0.0169559
0.0169757
-0.000116625
-0.0160087
0.0160273
-0.000134357
-0.0151147
0.0151325
-0.000150979
-0.0142706
0.0142872
-0.00016662
-0.0134738
0.0134895
-0.000180839
-0.0127218
0.0127361
-0.000194736
-0.0120114
0.0120253
-0.000207159
-0.0113414
0.0113538
-0.000218502
-0.0107085
0.0107199
-0.000228792
-0.0101117
0.010122
-0.000238263
-0.00954833
0.0095578
-0.000246975
-0.00901687
0.00902558
-0.000255005
-0.00851522
0.00852325
-0.000261606
-0.0080426
0.0080492
-0.000267666
-0.00759665
0.00760271
-0.000273107
-0.00717668
0.00718212
-0.000277547
-0.00678023
0.00678467
-0.000280821
-0.00640772
0.00641099
-0.000284248
-0.00605573
0.00605916
-0.000286615
-0.00572512
0.00572749
-0.000287934
-0.00541398
0.0054153
-0.000289321
-0.00512013
0.00512152
-0.000289751
-0.00484511
0.00484554
-0.000289274
-0.00458522
0.00458474
-0.000288663
-0.00434094
0.00434033
-0.00028681
-0.00411187
0.00411002
-0.000284556
-0.0038961
0.00389385
-0.000280776
-0.00369368
0.0036899
-0.000276584
-0.00350214
0.00349794
-0.000271961
-0.00332249
0.00331787
-0.000265133
-0.00315356
0.00314673
-0.000257189
-0.00299449
0.00298654
-0.000247603
-0.0028437
0.00283411
-0.000235787
-0.00270318
0.00269136
-0.000221469
-0.00256797
0.00255366
-0.000204433
-0.00244319
0.00242616
-0.000183159
-0.00231929
0.00229801
-0.000160959
-0.00222671
0.00220451
-0.000134305
-0.00216651
0.00213986
-7.15926e-05
-0.00206187
0.00199915
-0.00112455
0.00105296
0.0129192
-0.490509
0.0126399
-0.462219
0.0122221
-0.435745
0.0116998
-0.41089
0.0111775
-0.387515
0.0106549
-0.36552
0.0100979
-0.344765
0.00957545
-0.325218
0.00901862
-0.306775
0.00853106
-0.289436
0.00804372
-0.273029
0.00755655
-0.257554
0.00713873
-0.243011
0.00672108
-0.229263
0.00633818
-0.216308
0.00596925
-0.204049
0.00562465
-0.192521
0.00529398
-0.181629
0.00498067
-0.171363
0.00468817
-0.161673
0.00440952
-0.152533
0.00414818
-0.143912
0.00390064
-0.135778
0.00367037
-0.128107
0.00344695
-0.120864
0.00324076
-0.11404
0.00304139
-0.107597
0.00285922
-0.101523
0.00268383
-0.0957909
0.00251523
-0.0903807
0.00236031
-0.0852817
0.00221561
-0.0804731
0.00207418
-0.0759306
0.00194295
-0.0716509
0.00181497
-0.0676097
0.00169717
-0.0638035
0.00158605
-0.0602081
0.00147818
-0.0568166
0.00137701
-0.053622
0.00128252
-0.0506036
0.0011913
-0.0477578
0.00110327
-0.0450709
0.00102544
-0.0425426
0.00094394
-0.0401489
0.000872639
-0.0379001
0.000801155
-0.0357684
0.000736491
-0.0337677
0.000671693
-0.0318702
0.000613746
-0.0300863
0.000552237
-0.0283987
0.000501089
-0.0268109
0.000449935
-0.0253125
0.000402259
-0.0238929
0.000351191
-0.0225558
0.000309298
-0.0212969
0.0002675
-0.0201056
0.000227869
-0.0189822
0.000190644
-0.0179216
0.000154945
-0.0169202
0.000121641
-0.0159754
9.00209e-05
-0.0150831
6.01842e-05
-0.0142408
3.23305e-05
-0.013446
5.98854e-06
-0.0126955
-1.81581e-05
-0.0119873
-4.1194e-05
-0.0113184
-6.24684e-05
-0.0106872
-8.23969e-05
-0.0100918
-0.000100658
-0.00953007
-0.000117625
-0.0089999
-0.00013344
-0.0084994
-0.000147504
-0.00802854
-0.000160441
-0.00758371
-0.000172947
-0.00716418
-0.000183286
-0.00676989
-0.000193634
-0.00639737
-0.000202193
-0.00604717
-0.000210012
-0.00571731
-0.000217147
-0.00540684
-0.000222214
-0.00511506
-0.000227787
-0.00483953
-0.000231726
-0.00458128
-0.000234394
-0.00433828
-0.000236219
-0.00411005
-0.000237642
-0.00389468
-0.000238729
-0.00369259
-0.000237476
-0.00350339
-0.000234746
-0.00332522
-0.000231268
-0.00315704
-0.00022605
-0.00299971
-0.000218985
-0.00285076
-0.000209624
-0.00271254
-0.00019773
-0.00257987
-0.000181679
-0.00245924
-0.000162854
-0.00233811
-0.000141903
-0.00224766
-0.000120442
-0.00218797
-6.60759e-05
-0.00211623
-0.00119063
0.0208997
-0.489678
0.0200332
-0.461352
0.0191663
-0.434878
0.0182298
-0.409953
0.0173276
-0.386613
0.0163907
-0.364583
0.0155229
-0.343897
0.0146551
-0.32435
0.0138565
-0.305976
0.0130581
-0.288637
0.0123289
-0.2723
0.0116691
-0.256894
0.0109748
-0.242317
0.0103499
-0.228638
0.00972503
-0.215684
0.0091833
-0.203507
0.00864859
-0.191986
0.00814855
-0.181129
0.00767623
-0.17089
0.00722816
-0.161225
0.00680777
-0.152113
0.00640812
-0.143512
0.00603267
-0.135402
0.00567792
-0.127752
0.00534387
-0.12053
0.00502703
-0.113724
0.00473085
-0.1073
0.0044484
-0.10124
0.00417966
-0.0955222
0.00393155
-0.0901326
0.00369365
-0.0850438
0.00346597
-0.0802454
0.00325542
-0.0757201
0.00305506
-0.0714505
0.00286834
-0.067423
0.00268835
-0.0636235
0.00251851
-0.0600383
0.00235883
-0.0566569
0.00220587
-0.0534691
0.00206306
-0.0504608
0.00192696
-0.0476217
0.00180102
-0.0449449
0.00167836
-0.04242
0.0015659
-0.0400365
0.00145324
-0.0377874
0.00135083
-0.035666
0.0012517
-0.0336686
0.00115941
-0.0317779
0.00107049
-0.0299974
0.000988444
-0.0283167
0.00090983
-0.0267323
0.000831154
-0.0252338
0.000762967
-0.0238247
0.000694749
-0.0224876
0.000631557
-0.0212337
0.000571233
-0.0200453
0.000513837
-0.0189248
0.000459702
-0.0178674
0.000408898
-0.0168694
0.000360568
-0.015927
0.000314844
-0.0150374
0.00027227
-0.0141982
0.000231648
-0.0134054
0.000193904
-0.0126577
0.000157972
-0.0119514
0.000124519
-0.0112849
9.3318e-05
-0.010656
6.43256e-05
-0.0100628
3.67638e-05
-0.00950251
1.1141e-05
-0.00897428
-1.19954e-05
-0.00847627
-3.40808e-05
-0.00800645
-5.47415e-05
-0.00756305
-7.3147e-05
-0.00714577
-9.04979e-05
-0.00675254
-0.000106319
-0.00638155
-0.000120683
-0.00603281
-0.000133917
-0.00570407
-0.000145768
-0.00539499
-0.000157008
-0.00510382
-0.000166594
-0.00482995
-0.000174912
-0.00457296
-0.000181954
-0.00433124
-0.000188234
-0.00410377
-0.000192848
-0.00389007
-0.000195997
-0.00368944
-0.000197958
-0.00350143
-0.000199194
-0.00332399
-0.000198614
-0.00315762
-0.000196064
-0.00300226
-0.000191081
-0.00285575
-0.000184148
-0.00271947
-0.000174636
-0.00258938
-0.000161498
-0.00247238
-0.000144948
-0.00235466
-0.000124997
-0.00226761
-0.000107576
-0.00220539
-6.05355e-05
-0.00216327
-0.00125116
0.0289494
-0.48826
0.0275648
-0.459967
0.0261452
-0.433459
0.0248288
-0.408637
0.0235122
-0.385296
0.02223
-0.3633
0.0210168
-0.342684
0.0198382
-0.323171
0.0187288
-0.304867
0.0176886
-0.287597
0.0166831
-0.271294
0.0157123
-0.255923
0.0148107
-0.241415
0.0139784
-0.227805
0.0131809
-0.214886
0.0124076
-0.202734
0.0116931
-0.191272
0.0110203
-0.180456
0.010382
-0.170252
0.00978187
-0.160625
0.00921283
-0.151544
0.00867837
-0.142978
0.008175
-0.134899
0.00769579
-0.127273
0.00724766
-0.120082
0.00682365
-0.1133
0.00642029
-0.106897
0.0060445
-0.100864
0.00568588
-0.0951636
0.00534788
-0.0897946
0.00503049
-0.0847264
0.00473369
-0.0799486
0.00444711
-0.0754335
0.0041811
-0.0711845
0.00392527
-0.0671671
0.00368655
-0.0633848
0.00346146
-0.0598132
0.00324655
-0.056442
0.00304525
-0.0532678
0.00285413
-0.0502697
0.00267318
-0.0474408
0.00250244
-0.0447742
0.00233837
-0.0422559
0.00218454
-0.0398826
0.00204094
-0.0376438
0.00190407
-0.0355291
0.00177402
-0.0335385
0.00165078
-0.0316547
0.00153433
-0.029881
0.00142479
-0.0282071
0.00131862
-0.0266261
0.00122292
-0.0251381
0.00112715
-0.0237289
0.0010419
-0.0224023
0.000954905
-0.0211467
0.000875632
-0.019966
0.000801168
-0.0188503
0.000730216
-0.0177965
0.000663021
-0.0168022
0.000600066
-0.0158641
0.000540586
-0.0149779
0.00048423
-0.0141418
0.000431678
-0.0133528
0.000381503
-0.0126076
0.000334703
-0.0119046
0.000290681
-0.0112409
0.000249388
-0.0106147
0.000210804
-0.0100242
0.000174354
-0.00946606
0.000140676
-0.0089406
0.00010865
-0.00844424
7.90262e-05
-0.00797683
5.18858e-05
-0.00753591
2.64647e-05
-0.00712035
2.33765e-06
-0.00672841
-1.95727e-05
-0.00635964
-4.00099e-05
-0.00601237
-5.83202e-05
-0.00568576
-7.59611e-05
-0.00537735
-9.12093e-05
-0.00508858
-0.000105124
-0.00481603
-0.000117788
-0.0045603
-0.00012925
-0.00431977
-0.000139533
-0.00409348
-0.000147772
-0.00388183
-0.000154895
-0.00368232
-0.000160955
-0.00349537
-0.000164629
-0.00332031
-0.000166422
-0.00315583
-0.000166649
-0.00300203
-0.000164196
-0.0028582
-0.000160376
-0.00272329
-0.00015272
-0.00259704
-0.000142063
-0.00248304
-0.00012693
-0.00236979
-0.000109462
-0.00228508
-9.57538e-05
-0.0022191
-5.62343e-05
-0.00220279
-0.0013074
0.0369647
-0.48622
0.0350273
-0.45803
0.0331932
-0.431625
0.0314278
-0.406872
0.0296968
-0.383565
0.0280693
-0.361673
0.0265108
-0.341126
0.0250213
-0.321682
0.0236356
-0.303481
0.02225
-0.286212
0.0210027
-0.270047
0.01979
-0.254711
0.0186812
-0.240306
0.017607
-0.226731
0.0166021
-0.213881
0.0156491
-0.201781
0.0147481
-0.190371
0.0138989
-0.179607
0.0130982
-0.169452
0.0123425
-0.159869
0.0116318
-0.150833
0.010959
-0.142305
0.0103208
-0.134261
0.00972409
-0.126676
0.00915841
-0.119517
0.00862378
-0.112765
0.00812363
-0.106397
0.00764413
-0.100385
0.00719909
-0.0947185
0.00677468
-0.0893702
0.00637779
-0.0843295
0.00599457
-0.0795654
0.00564232
-0.0750812
0.00530374
-0.0708459
0.00498572
-0.0668491
0.00468482
-0.0630839
0.004401
-0.0595294
0.00413429
-0.0561753
0.00388124
-0.0530147
0.0036418
-0.0500302
0.00341601
-0.047215
0.00320038
-0.0445586
0.00299845
-0.042054
0.00281017
-0.0396944
0.00262865
-0.0374623
0.00245736
-0.0353578
0.00229285
-0.033374
0.00214209
-0.0315039
0.0019982
-0.0297371
0.00186113
-0.0280701
0.00173094
-0.0264959
0.00160763
-0.0250148
0.00149135
-0.0236126
0.00138199
-0.0222929
0.00127894
-0.0210437
0.00118089
-0.019868
0.00108774
-0.0187572
0.00100033
-0.0177091
0.000917953
-0.0167198
0.000839647
-0.0157858
0.00076609
-0.0149044
0.000696556
-0.0140723
0.000630917
-0.0132872
0.000569232
-0.0125459
0.000511182
-0.0118465
0.000456604
-0.0111863
0.000405272
-0.0105634
0.000356951
-0.0099759
0.000311787
-0.00942089
0.000269371
-0.00889818
0.000229862
-0.00840473
0.000192626
-0.00793959
0.000157476
-0.00750076
0.000124967
-0.00708784
9.51355e-05
-0.00669858
6.71122e-05
-0.00633161
4.09895e-05
-0.00598625
1.62361e-05
-0.00566101
-5.39003e-06
-0.00535572
-2.63993e-05
-0.00506757
-4.50596e-05
-0.00479737
-6.25046e-05
-0.00454285
-7.79189e-05
-0.00430436
-9.17475e-05
-0.00407966
-0.000104074
-0.0038695
-0.000114583
-0.00367181
-0.000122876
-0.00348708
-0.000130041
-0.00331315
-0.00013473
-0.00315114
-0.000137711
-0.00299905
-0.000139043
-0.00285687
-0.000136636
-0.0027257
-0.000131496
-0.00260218
-0.000123382
-0.00249115
-0.000112026
-0.00238115
-9.6095e-05
-0.00230101
-8.42554e-05
-0.00223094
-5.12318e-05
-0.00223582
-0.00135863
0.0450145
-0.483627
0.042559
-0.455574
0.0402413
-0.429307
0.0380269
-0.404657
0.0359159
-0.381454
0.0339431
-0.3597
0.0320046
-0.339187
0.0302389
-0.319916
0.0284732
-0.301715
0.026915
-0.284653
0.0253567
-0.268489
0.0239368
-0.253291
0.0225516
-0.238921
0.0212356
-0.225415
0.0200233
-0.212669
0.0188941
-0.200651
0.0178099
-0.189287
0.0167879
-0.178585
0.0158213
-0.168485
0.0149101
-0.158958
0.0140507
-0.149974
0.0132397
-0.141494
0.0124771
-0.133498
0.0117559
-0.125955
0.0110761
-0.118837
0.0104309
-0.11212
0.00982355
-0.10579
0.00925417
-0.0998155
0.00871235
-0.0941767
0.00820498
-0.0888628
0.00771821
-0.0838428
0.00726934
-0.0791165
0.0068376
-0.0746495
0.00643338
-0.0704417
0.00604972
-0.0664655
0.00569007
-0.0627242
0.00534756
-0.0591869
0.0050256
-0.0558534
0.00472074
-0.0527099
0.00443299
-0.0497425
0.00416234
-0.0469443
0.00390538
-0.0443016
0.00366204
-0.0418107
0.00343239
-0.0394647
0.00321292
-0.0372428
0.00301066
-0.0351556
0.00281868
-0.033182
0.00263347
-0.0313187
0.00245859
-0.0295622
0.00229746
-0.0279089
0.00214326
-0.0263417
0.00199593
-0.0248674
0.00185557
-0.0234722
0.00172564
-0.022163
0.00160231
-0.0209204
0.00148568
-0.0197513
0.00137532
-0.0186468
0.00127077
-0.0176045
0.00117193
-0.016621
0.00107889
-0.0156927
0.00099116
-0.0148166
0.000908237
-0.0139894
0.000829967
-0.0132089
0.000756715
-0.0124726
0.000687139
-0.0117769
0.000622036
-0.0111212
0.00056066
-0.010502
0.000502618
-0.00991786
0.000448407
-0.00936668
0.000397409
-0.00884719
0.000349495
-0.00835682
0.000304882
-0.00789498
0.000262942
-0.00745882
0.00022381
-0.00704871
0.000186836
-0.00666161
0.000152523
-0.0062973
0.000120645
-0.00595437
9.12251e-05
-0.00563159
6.35105e-05
-0.00532801
3.78022e-05
-0.00504186
1.44364e-05
-0.00477401
-7.29403e-06
-0.00452112
-2.71219e-05
-0.00428453
-4.4218e-05
-0.00406256
-6.0526e-05
-0.00385319
-7.44974e-05
-0.00365784
-8.66605e-05
-0.00347491
-9.7074e-05
-0.00330273
-0.000104644
-0.00314357
-0.000111061
-0.00299263
-0.000113285
-0.00285464
-0.000114065
-0.00272492
-0.000112014
-0.00260423
-0.000106427
-0.00249674
-9.66212e-05
-0.00239096
-8.29989e-05
-0.00231463
-7.56943e-05
-0.00223824
-4.7641e-05
-0.00226387
-0.00140627
0.0529952
-0.480482
0.0500906
-0.45267
0.0472893
-0.426506
0.0446259
-0.401994
0.0421351
-0.378964
0.0397477
-0.357313
0.037533
-0.336972
0.0353874
-0.317771
0.0334145
-0.299742
0.0314762
-0.282715
0.0297107
-0.266723
0.0280145
-0.251594
0.0264219
-0.237329
0.0249332
-0.223926
0.0235136
-0.211249
0.022139
-0.199277
0.0208717
-0.188019
0.0196735
-0.177387
0.0185445
-0.167356
0.0174811
-0.157895
0.0164731
-0.148966
0.0155273
-0.140548
0.0146333
-0.132604
0.0137842
-0.125106
0.0129869
-0.11804
0.012238
-0.111371
0.011527
-0.105079
0.0108574
-0.0991459
0.0102257
-0.093545
0.00962842
-0.0882656
0.00906908
-0.0832834
0.00853381
-0.0785813
0.00803296
-0.0741487
0.00755961
-0.0699684
0.00711376
-0.0660196
0.0066885
-0.062299
0.00629419
-0.0587925
0.00591697
-0.0554761
0.00556032
-0.0523532
0.00522426
-0.0494064
0.00490531
-0.0466254
0.00460693
-0.0440032
0.00432569
-0.0415294
0.00405464
-0.0391937
0.00380424
-0.0369924
0.00356408
-0.0349154
0.00333762
-0.0329556
0.00312491
-0.031106
0.00292594
-0.0293632
0.0027304
-0.0277134
0.00255215
-0.0261635
0.00238076
-0.0246961
0.00222321
-0.0233147
0.00206884
-0.0220086
0.00192597
-0.0207775
0.00178974
-0.0196151
0.00166166
-0.0185187
0.00154059
-0.0174835
0.00142616
-0.0165065
0.00131793
-0.0155845
0.0012158
-0.0147145
0.00111972
-0.0138933
0.00102888
-0.0131181
0.000943116
-0.0123869
0.000862732
-0.0116966
0.000786755
-0.0110452
0.000715205
-0.0104305
0.000647832
-0.00985048
0.000584766
-0.00930362
0.000525293
-0.00878771
0.000469282
-0.00830081
0.000416868
-0.00784256
0.000368024
-0.00740997
0.000321518
-0.0070022
0.000278325
-0.00661841
0.000237926
-0.0062569
0.000200362
-0.00591681
0.000164905
-0.00559613
0.000132166
-0.00529527
0.000101426
-0.00501112
7.33744e-05
-0.00474595
4.76662e-05
-0.00449542
2.35029e-05
-0.00426037
1.62747e-06
-0.00404068
-1.74737e-05
-0.00383409
-3.55214e-05
-0.00363979
-5.07613e-05
-0.00345967
-6.40253e-05
-0.00328947
-7.57171e-05
-0.00313188
-8.375e-05
-0.0029846
-8.98395e-05
-0.00284855
-9.31666e-05
-0.00272159
-9.30445e-05
-0.00260435
-9.00654e-05
-0.00249972
-8.35124e-05
-0.00239751
-7.23384e-05
-0.0023258
-6.6061e-05
-0.00224452
-4.32657e-05
-0.00228666
-0.00144954
0.0609759
-0.476853
0.0575187
-0.449213
0.0543029
-0.42329
0.0512595
-0.39895
0.0483542
-0.376058
0.0456214
-0.35458
0.0430268
-0.334378
0.0406049
-0.315349
0.0382866
-0.297424
0.0361411
-0.280569
0.0340301
-0.264612
0.0320921
-0.249656
0.0302923
-0.235529
0.0285271
-0.222161
0.0269002
-0.209622
0.0253805
-0.197757
0.02393
-0.186569
0.022559
-0.176016
0.0212641
-0.166061
0.0200452
-0.156676
0.0188955
-0.147816
0.017808
-0.139461
0.0167792
-0.131575
0.0158161
-0.124143
0.0149047
-0.117128
0.0140417
-0.110508
0.0132304
-0.104267
0.0124606
-0.098376
0.011739
-0.0928234
0.0110554
-0.087582
0.0104096
-0.0826377
0.00980178
-0.0779734
0.00922837
-0.0735752
0.00868592
-0.0694259
0.00817444
-0.0655081
0.00769391
-0.0618184
0.00723395
-0.0583326
0.00680495
-0.0550471
0.00639653
-0.0519448
0.00601212
-0.049022
0.00565178
-0.046265
0.00530856
-0.04366
0.00498244
-0.0412033
0.00468043
-0.0388916
0.0043921
-0.0367041
0.00411747
-0.0346408
0.00386005
-0.0326981
0.00361636
-0.0308623
0.00338643
-0.0291333
0.00317027
-0.0274972
0.00296445
-0.0259577
0.002769
-0.0245006
0.00258397
-0.0231297
0.0024117
-0.0218364
0.00224786
-0.0206137
0.00209342
-0.0194607
0.0019471
-0.0183724
0.00180883
-0.0173452
0.00167875
-0.0163765
0.00155561
-0.0154614
0.00143967
-0.0145985
0.00133
-0.0137836
0.0012267
-0.0130148
0.00112914
-0.0122893
0.00103742
-0.0116048
0.000950467
-0.0109583
0.000869094
-0.0103491
0.000792575
-0.00977397
0.000719977
-0.00923102
0.000651972
-0.00871971
0.000588183
-0.00823702
0.000527636
-0.00778201
0.000471437
-0.00735377
0.000418609
-0.00694937
0.000369018
-0.00656882
0.000322331
-0.00621021
0.000278434
-0.00587291
0.000237974
-0.00555567
0.000199891
-0.00525719
0.000165221
-0.00497645
0.000131775
-0.00471251
0.000101331
-0.00446497
7.31809e-05
-0.00423222
4.73337e-05
-0.00401484
2.37731e-05
-0.00381053
2.47641e-06
-0.0036185
-1.60052e-05
-0.00344119
-3.25309e-05
-0.00327294
-4.60307e-05
-0.00311838
-5.80229e-05
-0.0029726
-6.68119e-05
-0.00283976
-7.27715e-05
-0.00271563
-7.57597e-05
-0.00260136
-7.47499e-05
-0.00250073
-7.07555e-05
-0.0024015
-6.207e-05
-0.00233449
-5.79076e-05
-0.00224868
-4.02081e-05
-0.00230436
-0.00148974
0.0688875
-0.472706
0.0649813
-0.445306
0.0612819
-0.41959
0.0577895
-0.395458
0.0545387
-0.372807
0.0514606
-0.351502
0.0485206
-0.331438
0.0457532
-0.312581
0.0431586
-0.294829
0.0407022
-0.278113
0.0384186
-0.262329
0.0362042
-0.247442
0.034128
-0.233453
0.0321901
-0.220223
0.0303524
-0.207785
0.028615
-0.19602
0.0269745
-0.184928
0.0254307
-0.174472
0.0239768
-0.164607
0.022599
-0.155298
0.0213041
-0.146521
0.0200783
-0.138235
0.0189251
-0.130422
0.0178376
-0.123055
0.0168087
-0.116099
0.0158385
-0.109537
0.0149236
-0.103352
0.0140604
-0.0975128
0.0132455
-0.0920086
0.0124755
-0.0868119
0.0117502
-0.0819125
0.0110664
-0.0772895
0.0104169
-0.0729258
0.00980537
-0.0688144
0.00923169
-0.0649345
0.00868553
-0.0612723
0.00817379
-0.0578208
0.00768955
-0.0545629
0.00723277
-0.051488
0.00680006
-0.0485893
0.00639141
-0.0458564
0.00600676
-0.0432753
0.00564279
-0.0408393
0.00529937
-0.0385482
0.00497309
-0.0363778
0.00466751
-0.0343352
0.00437903
-0.0324097
0.00410438
-0.0305876
0.00384343
-0.0288724
0.00359977
-0.0272536
0.00336986
-0.0257277
0.00315383
-0.0242846
0.00294815
-0.022924
0.00275257
-0.0216408
0.00256875
-0.0204298
0.00239514
-0.019287
0.00223123
-0.0182085
0.00207646
-0.0171904
0.00193011
-0.0162301
0.00179237
-0.0153236
0.00166196
-0.0144681
0.00153906
-0.0136607
0.0014233
-0.012899
0.00131396
-0.01218
0.00121057
-0.0115014
0.00111367
-0.0108614
0.00102181
-0.0102573
0.000935286
-0.00968744
0.000854248
-0.00914998
0.000777953
-0.00864341
0.000705985
-0.00816505
0.000638497
-0.00771453
0.000574399
-0.00728968
0.000514589
-0.00688956
0.000458415
-0.00651265
0.000406099
-0.0061579
0.00035691
-0.00582372
0.00031046
-0.00550922
0.000267049
-0.00521378
0.000226662
-0.00493606
0.000189249
-0.00467509
0.000154138
-0.00442986
0.00012202
-0.0042001
9.22147e-05
-0.00398503
6.45548e-05
-0.00378287
4.05335e-05
-0.00359447
1.79432e-05
-0.0034186
-2.06124e-06
-0.00325294
-1.91446e-05
-0.00310129
-3.33641e-05
-0.00295839
-4.42129e-05
-0.00282892
-5.34039e-05
-0.00270644
-5.82172e-05
-0.00259655
-5.9712e-05
-0.00249923
-5.83208e-05
-0.00240289
-5.27762e-05
-0.00234003
-4.97071e-05
-0.00225175
-3.62631e-05
-0.00231781
-0.00152601
0.07673
-0.468076
0.0723402
-0.440917
0.0682263
-0.415477
0.064354
-0.391586
0.0606887
-0.369142
0.0572307
-0.348044
0.0539798
-0.328187
0.0509361
-0.309538
0.0480306
-0.291924
0.0452634
-0.275346
0.0427034
-0.259769
0.0402817
-0.24502
0.0379637
-0.231135
0.0358185
-0.218078
0.0337597
-0.205726
0.0318288
-0.194089
0.030012
-0.183111
0.0282955
-0.172756
0.0266757
-0.162987
0.0251458
-0.153768
0.0237023
-0.145078
0.0223452
-0.136878
0.0210607
-0.129138
0.0198487
-0.121843
0.0187058
-0.114956
0.0176285
-0.10846
0.0166098
-0.102334
0.0156499
-0.0965529
0.0147417
-0.0911004
0.0138887
-0.0859589
0.0130805
-0.0811043
0.0123206
-0.0765296
0.0116021
-0.0722073
0.0109249
-0.0681372
0.0102856
-0.0642952
0.00968068
-0.0606674
0.00911022
-0.0572504
0.00857071
-0.0540234
0.00806219
-0.0509795
0.00758461
-0.0481117
0.0071276
-0.0453994
0.0067016
-0.0428493
0.00629964
-0.0404374
0.00591485
-0.0381634
0.00555416
-0.0360172
0.00521753
-0.0339985
0.0048912
-0.0320833
0.00458895
-0.0302854
0.00430394
-0.0285873
0.00403274
-0.0269824
0.00377532
-0.0254703
0.0035352
-0.0240445
0.00330547
-0.0226943
0.00309132
-0.0214266
0.00288759
-0.0202261
0.00269495
-0.0190944
0.00251317
-0.0180267
0.00234191
-0.0170192
0.0021802
-0.0160684
0.00202721
-0.0151706
0.00188303
-0.014324
0.00174668
-0.0135244
0.00161814
-0.0127705
0.00149695
-0.0120588
0.00138268
-0.0113872
0.00127499
-0.0107537
0.00117354
-0.0101558
0.00107775
-0.00959165
0.000987737
-0.00905997
0.000902614
-0.00855829
0.000822695
-0.00808513
0.000747593
-0.00763942
0.00067691
-0.00721899
0.000610318
-0.00682297
0.000547853
-0.00645018
0.00048889
-0.00609893
0.000433419
-0.00576825
0.000382365
-0.00545817
0.000333652
-0.00516506
0.000288269
-0.00489068
0.000245865
-0.00463269
0.000206806
-0.0043908
0.000170741
-0.00416403
0.0001364
-0.00395069
0.000105748
-0.00375222
7.71301e-05
-0.00356586
5.1289e-05
-0.00339276
2.86584e-05
-0.00323031
8.58383e-06
-0.00308122
-8.4195e-06
-0.00294138
-2.31805e-05
-0.00281415
-3.42868e-05
-0.00269533
-4.16349e-05
-0.0025892
-4.68976e-05
-0.00249397
-4.78614e-05
-0.00240193
-4.35832e-05
-0.00234431
-4.35136e-05
-0.00225182
-3.30935e-05
-0.00232823
-0.0015591
0.0845034
-0.462927
0.0796991
-0.436112
0.0751362
-0.410914
0.0708494
-0.387299
0.0668042
-0.365097
0.0630007
-0.34424
0.0594389
-0.324625
0.0560153
-0.306114
0.0528335
-0.288742
0.0498244
-0.272337
0.0469881
-0.256932
0.04429
-0.242322
0.0417993
-0.228644
0.0394123
-0.215691
0.0371497
-0.203463
0.0350288
-0.191968
0.0330254
-0.181108
0.0311361
-0.170866
0.0293539
-0.161205
0.0276754
-0.15209
0.0260902
-0.143493
0.0245914
-0.135379
0.0231825
-0.127729
0.021846
-0.120507
0.0205891
-0.113699
0.0194046
-0.107276
0.0182857
-0.101215
0.0172325
-0.0954996
0.0162344
-0.0901023
0.015295
-0.0850195
0.0144074
-0.0802166
0.013568
-0.0756903
0.0127804
-0.0714196
0.0120341
-0.0673909
0.0113291
-0.0635902
0.0106655
-0.0600038
0.0100363
-0.0566212
0.00944503
-0.0534321
0.00888815
-0.0504226
0.00835882
-0.0475824
0.00786387
-0.0449044
0.00738956
-0.042375
0.00694621
-0.039994
0.00652693
-0.0377441
0.00613521
-0.0356254
0.0057572
-0.0336205
0.00540679
-0.0317329
0.00507355
-0.0299521
0.00475759
-0.0282714
0.00446228
-0.0266871
0.00418079
-0.0251888
0.00391311
-0.0237768
0.00366616
-0.0224473
0.00342726
-0.0211877
0.00320363
-0.0200025
0.00299316
-0.0188839
0.00279389
-0.0178275
0.00260573
-0.016831
0.00242778
-0.0158904
0.00226026
-0.0150031
0.00210208
-0.0141658
0.00195299
-0.0133753
0.00181217
-0.0126296
0.00167897
-0.0119256
0.00155376
-0.011262
0.00143516
-0.0106351
0.0013236
-0.0100442
0.00121889
-0.00948694
0.00111961
-0.00896069
0.00102638
-0.00846506
0.000938325
-0.00799708
0.000855739
-0.00755684
0.000777881
-0.00714113
0.000704607
-0.0067497
0.000635546
-0.00638112
0.000570762
-0.00603415
0.000510346
-0.00570783
0.00045267
-0.00540049
0.000399351
-0.00511174
0.000349355
-0.00484068
0.00030268
-0.00458602
0.000258573
-0.00434669
0.000217757
-0.00412322
0.00018039
-0.00391332
0.000145026
-0.00371686
0.000112954
-0.00353379
8.42336e-05
-0.00336404
5.79265e-05
-0.003204
3.49003e-05
-0.00305819
1.45156e-05
-0.002921
-2.35451e-06
-0.00279728
-1.60332e-05
-0.00268165
-2.64506e-05
-0.00257878
-3.35381e-05
-0.00248688
-3.68339e-05
-0.00239863
-3.57398e-05
-0.00234541
-3.71497e-05
-0.00225041
-3.01724e-05
-0.00233521
-0.00158927
0.0922077
-0.457329
0.0869198
-0.430825
0.081977
-0.405971
0.0772756
-0.382597
0.072885
-0.360706
0.0687016
-0.340057
0.0647944
-0.320718
0.0610945
-0.302414
0.0576364
-0.285284
0.0543509
-0.269051
0.0512383
-0.25382
0.0483329
-0.239417
0.0455658
-0.225877
0.0429369
-0.213062
0.0405154
-0.201042
0.038201
-0.189654
0.036018
-0.178925
0.0339594
-0.168808
0.0320182
-0.159264
0.0301842
-0.150256
0.0284539
-0.141762
0.0268238
-0.133749
0.0252835
-0.126188
0.023833
-0.119056
0.022462
-0.112328
0.0211704
-0.105984
0.0199513
-0.0999958
0.0187978
-0.0943461
0.0177134
-0.0890179
0.0166876
-0.0839937
0.0157205
-0.0792495
0.0148085
-0.0747783
0.0139483
-0.0705594
0.0131329
-0.0665755
0.0123658
-0.0628231
0.0116435
-0.0592815
0.0109591
-0.0559368
0.010316
-0.052789
0.00970385
-0.0498105
0.0091296
-0.0470082
0.00858637
-0.0443612
0.00807754
-0.0418662
0.00759279
-0.0395093
0.00713907
-0.0372904
0.00670596
-0.0351923
0.00629696
-0.0332115
0.0059155
-0.0313515
0.00555129
-0.0295879
0.00520773
-0.0279278
0.00488493
-0.0263643
0.00457933
-0.0248832
0.00429104
-0.0234885
0.00401659
-0.0221729
0.00376046
-0.0209316
0.00351784
-0.0197599
0.00328781
-0.0186539
0.00307131
-0.017611
0.00286669
-0.0166264
0.00267364
-0.0156974
0.00249137
-0.0148208
0.0023191
-0.0139935
0.00215684
-0.013213
0.00200336
-0.0124762
0.00185891
-0.0117811
0.00172277
-0.0111258
0.00159429
-0.0105066
0.00147285
-0.0099228
0.00135804
-0.00937214
0.00125036
-0.008853
0.00114891
-0.00836362
0.0010531
-0.00790126
0.000962723
-0.00746646
0.000877729
-0.00705614
0.000797889
-0.00666986
0.000723073
-0.00630631
0.000651979
-0.00596306
0.00058536
-0.00564122
0.000523103
-0.00533823
0.000464517
-0.00505316
0.000409205
-0.00478537
0.00035751
-0.00453432
0.00030945
-0.00429863
0.000264332
-0.0040781
0.000222883
-0.00387187
0.000184899
-0.00367887
0.000149444
-0.00349833
0.000116388
-0.00333098
8.70556e-05
-0.00317467
6.04569e-05
-0.00303159
3.72794e-05
-0.00289782
1.76839e-05
-0.00277769
8.58718e-07
-0.00266483
-1.20338e-05
-0.00256589
-2.0926e-05
-0.00247799
-2.64731e-05
-0.00239309
-2.84982e-05
-0.00234338
-3.05213e-05
-0.00224839
-2.73841e-05
-0.00233834
-0.00161666
0.0998083
-0.451248
0.094106
-0.425122
0.0887141
-0.400579
0.0836328
-0.377516
0.0788622
-0.355936
0.0743679
-0.335562
0.0701153
-0.316465
0.0661391
-0.298438
0.0623355
-0.28148
0.0588083
-0.265524
0.0554538
-0.250465
0.0523067
-0.236269
0.0492978
-0.222868
0.0464962
-0.210261
0.0438431
-0.198389
0.0413422
-0.187153
0.0389829
-0.176566
0.036755
-0.16658
0.0346515
-0.157161
0.0326689
-0.148273
0.0307969
-0.13989
0.029032
-0.131984
0.0273673
-0.124524
0.0257993
-0.117488
0.0243177
-0.110847
0.0229155
-0.104582
0.0215962
-0.0986765
0.0203529
-0.0931028
0.0191786
-0.0878436
0.0180664
-0.0828816
0.0170232
-0.0782064
0.0160353
-0.0737904
0.0151025
-0.0696267
0.0142249
-0.0656979
0.0133956
-0.0619938
0.0126111
-0.0584969
0.0118749
-0.0552005
0.0111731
-0.0520872
0.0105196
-0.049157
0.00989699
-0.0463856
0.00930887
-0.0437731
0.0087552
-0.0413125
0.00823254
-0.0389866
0.00773739
-0.0367953
0.0072698
-0.0347247
0.00683326
-0.032775
0.00641734
-0.0309355
0.00602559
-0.0291962
0.00565448
-0.0275567
0.00530407
-0.0260139
0.00497445
-0.0245536
0.00466205
-0.0231761
0.00436865
-0.0218795
0.00409051
-0.0206535
0.00382801
-0.0194974
0.00358044
-0.0184063
0.0033464
-0.0173769
0.00312558
-0.0164056
0.00291692
-0.0154887
0.00271999
-0.0146239
0.00253447
-0.013808
0.00235891
-0.0130375
0.00219353
-0.0123108
0.00203724
-0.0116248
0.00188978
-0.0109784
0.00175091
-0.0103677
0.00162008
-0.00979197
0.00149641
-0.00924847
0.00138001
-0.0087366
0.0012698
-0.00825341
0.00116659
-0.00779805
0.001069
-0.00736888
0.000977144
-0.00696428
0.000890598
-0.00658331
0.000808876
-0.00622459
0.000732293
-0.00588647
0.000660146
-0.00556907
0.000592304
-0.00527039
0.000528115
-0.00498897
0.000468563
-0.00472582
0.000412622
-0.00447838
0.000360311
-0.00424632
0.000311178
-0.00402897
0.000264967
-0.00382566
0.000222871
-0.00363678
0.00018379
-0.00345925
0.000147967
-0.00329516
0.000115487
-0.00314219
8.59403e-05
-0.00300205
6.00013e-05
-0.00287188
3.70776e-05
-0.00275476
1.76792e-05
-0.00264543
2.31131e-06
-0.00255052
-9.57868e-06
-0.0024661
-1.79677e-05
-0.0023847
-2.17475e-05
-0.0023396
-2.50736e-05
-0.00224506
-2.47519e-05
-0.00233866