/*--------------------------------*- C++ -*----------------------------------*\
  =========                 |
  \\      /  F ield         | OpenFOAM: The Open Source CFD Toolbox
   \\    /   O peration     | Website:  https://openfoam.org
    \\  /    A nd           | Version:  9
     \\/     M anipulation  |
\*---------------------------------------------------------------------------*/
FoamFile
{
    format      ascii;
    class       volScalarField;
    location    "750";
    object      ReThetat;
}
// * * * * * * * * * * * * * * * * * * * * * * * * * * * * * * * * * * * * * //

dimensions      [0 0 0 0 0 0 0];

internalField   nonuniform List<scalar> 
13538
(
1047.63
1180.18
1105.24
1098.2
1096.07
1093.88
1091.4
1089.08
1086.61
1084.25
1081.8
1079.42
1077
1074.64
1072.27
1069.97
1067.7
1065.51
1063.4
1061.4
1059.53
1057.81
1056.26
1054.91
1053.79
1052.94
1052.37
1052.13
1052.25
1052.73
1053.59
1054.84
1056.45
1058.37
1060.52
1062.77
1064.98
1066.95
1068.47
1069.34
1069.37
1068.43
1066.45
1063.42
1059.41
1054.52
1048.6
1041.41
1033.98
1026.48
1018.94
1011.38
1003.81
996.243
988.68
981.126
973.586
966.062
958.556
951.066
943.586
936.104
928.604
921.063
913.446
905.708
897.807
889.709
881.365
872.717
863.703
854.295
844.489
834.302
823.742
812.841
801.729
790.63
779.717
769.016
758.512
748.254
738.355
728.917
719.89
711.234
702.87
694.84
687.298
680.591
674.04
665.922
655.147
628.514
588.521
543.329
522.766
505.328
498.291
1027.01
1178.78
1101.77
1092.11
1090.2
1088.2
1085.94
1083.75
1081.48
1079.26
1076.99
1074.77
1072.52
1070.32
1068.13
1065.99
1063.9
1061.88
1059.94
1058.11
1056.41
1054.85
1053.45
1052.26
1051.28
1050.56
1050.11
1049.97
1050.15
1050.68
1051.57
1052.81
1054.38
1056.23
1058.28
1060.43
1062.52
1064.38
1065.82
1066.64
1066.67
1065.79
1063.91
1061.03
1057.19
1052.49
1046.89
1039.94
1032.68
1025.33
1017.92
1010.49
1003.05
995.601
988.151
980.708
973.274
965.851
958.439
951.037
943.635
936.222
928.778
921.281
913.694
905.972
898.068
889.949
881.568
872.866
863.78
854.283
844.375
834.073
823.4
812.382
801.154
789.928
778.895
768.101
757.517
747.187
737.215
727.709
718.633
709.942
701.557
693.5
685.863
679.096
672.681
667.726
660.307
635.996
595.009
546.775
524.001
506.143
498.46
1012.63
1152.44
1107.51
1094.35
1092.19
1090.21
1087.94
1085.69
1083.4
1081.13
1078.84
1076.57
1074.3
1072.06
1069.84
1067.66
1065.53
1063.47
1061.5
1059.63
1057.88
1056.28
1054.85
1053.61
1052.6
1051.84
1051.36
1051.19
1051.35
1051.85
1052.72
1053.94
1055.48
1057.3
1059.32
1061.42
1063.46
1065.25
1066.62
1067.37
1067.34
1066.4
1064.48
1061.57
1057.72
1053.03
1047.46
1040.6
1033.38
1026.04
1018.64
1011.2
1003.76
996.303
988.85
981.402
973.964
966.535
959.116
951.704
944.288
936.856
929.385
921.85
914.213
906.429
898.447
890.233
881.738
872.906
863.676
854.018
843.937
833.455
822.593
811.403
800.01
788.626
777.445
766.522
755.843
745.43
735.386
725.82
716.705
707.991
699.594
691.531
683.858
677.116
670.574
664.684
657.812
640.59
599.613
548.537
525.286
506.629
498.565
1000.4
1148.91
1110.64
1093.85
1091.34
1089.45
1087.21
1084.96
1082.69
1080.43
1078.16
1075.91
1073.67
1071.45
1069.26
1067.12
1065.04
1063.02
1061.09
1059.28
1057.58
1056.04
1054.66
1053.48
1052.53
1051.82
1051.39
1051.26
1051.45
1051.98
1052.84
1054.04
1055.54
1057.3
1059.23
1061.22
1063.13
1064.81
1066.06
1066.71
1066.61
1065.64
1063.73
1060.87
1057.11
1052.51
1047.14
1040.47
1033.36
1026.1
1018.75
1011.37
1003.97
996.562
989.151
981.741
974.34
966.943
959.553
952.162
944.761
937.334
929.857
922.302
914.629
906.789
898.731
890.418
881.809
872.843
863.462
853.642
843.385
832.713
821.666
810.3
798.748
787.215
775.89
764.849
754.08
743.597
733.491
723.873
714.723
705.99
697.587
689.526
681.817
675.075
668.584
662.887
656.254
644.671
604.287
550.454
526.487
507.13
498.67
989.787
1152.06
1115.51
1094.17
1091.24
1089.46
1087.25
1084.99
1082.72
1080.47
1078.21
1075.97
1073.74
1071.53
1069.36
1067.23
1065.16
1063.16
1061.25
1059.45
1057.77
1056.24
1054.88
1053.71
1052.77
1052.06
1051.63
1051.5
1051.67
1052.17
1053
1054.15
1055.59
1057.28
1059.12
1061.03
1062.85
1064.43
1065.61
1066.22
1066.1
1065.14
1063.27
1060.48
1056.8
1052.31
1047.09
1040.62
1033.64
1026.44
1019.14
1011.8
1004.43
997.051
989.665
982.28
974.898
967.519
960.14
952.756
945.352
937.912
930.41
922.817
915.087
907.169
899.012
890.578
881.83
872.708
863.154
853.143
842.683
831.801
820.545
808.991
797.269
785.58
774.111
762.946
752.088
741.543
731.385
721.724
712.545
703.8
695.401
687.35
679.623
672.89
666.407
660.73
653.98
645.586
608.183
552.159
527.606
507.585
498.762
980.437
1167.91
1120.71
1094.57
1091.01
1089.33
1087.16
1084.89
1082.62
1080.37
1078.11
1075.88
1073.65
1071.46
1069.3
1067.18
1065.13
1063.14
1061.25
1059.46
1057.8
1056.28
1054.93
1053.77
1052.83
1052.13
1051.69
1051.55
1051.7
1052.17
1052.96
1054.05
1055.42
1057.03
1058.78
1060.59
1062.31
1063.81
1064.93
1065.49
1065.36
1064.42
1062.62
1059.92
1056.35
1051.98
1046.91
1040.71
1033.86
1026.75
1019.51
1012.22
1004.89
997.547
990.191
982.832
975.473
968.111
960.745
953.364
945.954
938.496
930.962
923.319
915.518
907.508
899.235
890.66
881.753
872.454
862.706
852.488
841.809
830.702
819.229
807.475
795.585
783.739
772.125
760.842
749.9
739.3
729.097
719.404
710.208
701.458
693.063
685.033
677.306
670.582
664.132
658.558
651.676
643.649
610.54
553.756
528.606
508.008
498.847
972.208
1255.81
1126.85
1095.38
1090.87
1089.24
1087.12
1084.84
1082.57
1080.32
1078.07
1075.83
1073.62
1071.43
1069.28
1067.17
1065.12
1063.14
1061.25
1059.48
1057.82
1056.3
1054.95
1053.79
1052.84
1052.13
1051.67
1051.49
1051.61
1052.03
1052.76
1053.78
1055.07
1056.58
1058.24
1059.95
1061.59
1063.01
1064.07
1064.61
1064.49
1063.6
1061.88
1059.29
1055.85
1051.62
1046.7
1040.79
1034.12
1027.11
1019.95
1012.7
1005.42
998.107
990.781
983.446
976.107
968.758
961.398
954.014
946.589
939.101
931.522
923.813
915.925
907.802
899.388
890.652
881.559
872.062
862.096
851.65
840.732
829.385
817.68
805.726
793.664
781.667
769.915
758.516
747.496
736.853
726.622
716.905
707.702
698.955
690.579
682.572
674.859
668.151
661.733
656.241
649.335
642.163
608.825
555.364
529.564
508.393
498.921
965.126
1167.86
1130.32
1096.73
1090.77
1089.16
1087.09
1084.82
1082.54
1080.28
1078.04
1075.8
1073.59
1071.4
1069.25
1067.15
1065.1
1063.13
1061.24
1059.46
1057.8
1056.28
1054.92
1053.75
1052.78
1052.04
1051.55
1051.33
1051.4
1051.76
1052.41
1053.35
1054.55
1055.96
1057.52
1059.13
1060.68
1062.03
1063.04
1063.57
1063.47
1062.65
1061.02
1058.56
1055.27
1051.2
1046.43
1040.84
1034.37
1027.48
1020.4
1013.22
1005.98
998.707
991.412
984.1
976.778
969.439
962.08
954.684
947.235
939.707
932.067
924.276
916.28
908.021
899.445
890.517
881.216
871.493
861.29
850.59
839.416
827.814
815.871
803.71
791.481
779.341
767.455
755.952
744.867
734.194
723.95
714.225
705.025
696.294
687.943
679.97
672.293
665.6
659.233
653.812
646.86
640.384
607.514
557.294
530.42
508.739
498.99
958.378
1154.61
1136.93
1098.03
1090.68
1089.1
1087.09
1084.82
1082.54
1080.27
1078.02
1075.79
1073.58
1071.39
1069.24
1067.13
1065.09
1063.11
1061.22
1059.43
1057.76
1056.23
1054.85
1053.65
1052.65
1051.88
1051.34
1051.07
1051.07
1051.36
1051.93
1052.77
1053.87
1055.17
1056.62
1058.13
1059.58
1060.87
1061.84
1062.36
1062.3
1061.55
1060.04
1057.72
1054.59
1050.7
1046.1
1040.82
1034.58
1027.85
1020.87
1013.76
1006.58
999.343
992.077
984.789
977.48
970.146
962.78
955.365
947.88
940.296
932.579
924.685
916.559
908.138
899.369
890.223
880.686
870.711
860.242
849.269
837.819
825.949
813.761
801.397
789.008
776.732
764.724
753.125
741.992
731.308
721.071
711.357
702.176
693.474
685.159
677.224
669.596
662.935
656.63
651.266
644.307
638.466
605.598
559.003
531.209
509.062
499.045
951.796
1220.95
1146.56
1099.3
1090.62
1089.04
1087.11
1084.85
1082.56
1080.29
1078.03
1075.79
1073.58
1071.39
1069.23
1067.12
1065.07
1063.08
1061.18
1059.38
1057.69
1056.14
1054.74
1053.51
1052.47
1051.64
1051.05
1050.71
1050.64
1050.84
1051.31
1052.05
1053.04
1054.22
1055.55
1056.95
1058.31
1059.53
1060.46
1060.98
1060.96
1060.29
1058.9
1056.74
1053.79
1050.09
1045.69
1040.67
1034.73
1028.19
1021.34
1014.31
1007.18
999.996
992.764
985.497
978.199
970.864
963.484
956.038
948.503
940.847
933.031
925.01
916.725
908.112
899.12
889.724
879.919
869.665
858.906
847.637
835.893
823.743
811.309
798.748
786.208
773.808
761.693
750.014
738.853
728.18
717.972
708.288
699.149
690.488
682.225
674.341
666.778
660.155
653.926
648.609
641.676
636.396
603.398
560.629
531.901
509.355
499.096
946.304
1163.21
1154.16
1101.48
1090.65
1089
1087.16
1084.9
1082.6
1080.32
1078.06
1075.82
1073.59
1071.4
1069.23
1067.12
1065.05
1063.06
1061.14
1059.32
1057.61
1056.03
1054.59
1053.32
1052.23
1051.35
1050.69
1050.28
1050.12
1050.22
1050.58
1051.2
1052.06
1053.12
1054.33
1055.61
1056.87
1058.01
1058.9
1059.42
1059.44
1058.86
1057.59
1055.59
1052.84
1049.34
1045.15
1040.34
1034.77
1028.47
1021.77
1014.84
1007.79
1000.65
993.454
986.207
978.917
971.574
964.169
956.678
949.077
941.327
933.388
925.211
916.738
907.898
898.644
888.964
878.86
868.297
857.222
845.633
833.578
821.145
808.468
795.719
783.047
770.535
758.328
746.593
735.429
724.792
714.636
705.012
695.927
687.335
679.135
671.317
663.833
657.263
651.125
645.841
638.972
634.185
601.516
562.082
532.545
509.616
499.139
940.489
1241.86
1169.05
1103.45
1090.67
1088.96
1087.22
1084.97
1082.66
1080.38
1078.11
1075.86
1073.63
1071.42
1069.25
1067.12
1065.04
1063.03
1061.09
1059.24
1057.51
1055.89
1054.41
1053.09
1051.95
1051
1050.27
1049.76
1049.51
1049.5
1049.74
1050.23
1050.96
1051.87
1052.94
1054.1
1055.25
1056.31
1057.15
1057.66
1057.72
1057.23
1056.1
1054.27
1051.71
1048.44
1044.47
1039.87
1034.66
1028.64
1022.13
1015.33
1008.36
1001.28
994.123
986.897
979.609
972.251
964.808
957.256
949.566
941.697
933.605
925.24
916.54
907.435
897.88
887.876
877.439
866.539
855.121
843.191
830.811
818.091
805.181
792.269
779.476
766.877
754.597
742.832
731.694
721.126
711.051
701.508
692.514
684.004
675.889
668.151
660.758
654.26
648.221
642.965
636.202
631.788
599.894
563.355
533.12
509.847
499.172
936.033
1149.36
1184.05
1107.32
1090.77
1088.91
1087.3
1085.08
1082.76
1080.46
1078.18
1075.92
1073.68
1071.46
1069.28
1067.13
1065.04
1063
1061.04
1059.16
1057.39
1055.73
1054.21
1052.83
1051.62
1050.6
1049.78
1049.18
1048.81
1048.68
1048.8
1049.15
1049.72
1050.49
1051.41
1052.43
1053.46
1054.43
1055.21
1055.7
1055.8
1055.39
1054.38
1052.72
1050.37
1047.32
1043.6
1039.24
1034.33
1028.64
1022.37
1015.73
1008.87
1001.86
994.74
987.533
980.242
972.857
965.361
957.729
949.924
941.905
933.625
925.031
916.061
906.645
896.746
886.377
875.574
864.306
852.52
840.229
827.515
814.51
801.392
788.338
775.452
762.785
750.462
738.702
727.63
717.164
707.201
697.77
688.888
680.491
672.479
664.839
657.554
651.145
645.213
639.991
633.365
629.201
598.447
564.221
533.615
510.056
499.202
930.984
1198.57
1229.26
1113.14
1090.57
1088.8
1087.4
1085.21
1082.87
1080.56
1078.28
1076
1073.75
1071.52
1069.32
1067.16
1065.04
1062.98
1060.99
1059.08
1057.27
1055.56
1053.98
1052.54
1051.26
1050.16
1049.24
1048.54
1048.05
1047.79
1047.76
1047.96
1048.38
1048.98
1049.74
1050.61
1051.51
1052.36
1053.07
1053.53
1053.65
1053.31
1052.42
1050.93
1048.79
1045.97
1042.49
1038.38
1033.69
1028.42
1022.43
1015.99
1009.26
1002.33
995.263
988.074
980.772
973.346
965.779
958.038
950.087
941.88
933.37
924.503
915.213
905.436
895.141
884.368
873.164
861.501
849.325
836.651
823.597
810.325
797.029
783.873
770.926
758.212
745.884
734.176
723.212
712.886
703.07
693.786
685.045
676.786
668.901
661.376
654.216
647.916
642.1
636.922
630.452
626.457
597.149
564.765
534.04
510.244
499.221
927.071
1129.09
1327.22
1123.92
1089.89
1088.61
1087.52
1085.36
1083.02
1080.7
1078.4
1076.11
1073.84
1071.6
1069.38
1067.2
1065.05
1062.97
1060.94
1058.99
1057.13
1055.38
1053.74
1052.23
1050.87
1049.67
1048.66
1047.84
1047.22
1046.82
1046.64
1046.68
1046.92
1047.35
1047.93
1048.63
1049.38
1050.11
1050.72
1051.14
1051.25
1050.97
1050.19
1048.85
1046.91
1044.32
1041.09
1037.24
1032.81
1027.87
1022.22
1016.03
1009.47
1002.64
995.631
988.459
981.137
973.654
965.99
958.11
949.973
941.534
932.741
923.545
913.881
903.686
892.946
881.726
870.091
858.009
845.42
832.354
818.957
805.45
792.026
778.808
765.829
753.11
740.816
729.216
718.419
708.274
698.643
689.537
680.977
672.881
665.15
657.764
650.745
644.574
638.885
633.756
627.433
623.589
595.833
565.08
534.407
510.399
499.234
921.899
1194.1
1331.76
1128.14
1089.22
1088.54
1087.66
1085.55
1083.19
1080.85
1078.54
1076.24
1073.96
1071.69
1069.46
1067.25
1065.08
1062.96
1060.9
1058.91
1057
1055.19
1053.48
1051.9
1050.45
1049.16
1048.03
1047.09
1046.33
1045.79
1045.44
1045.3
1045.36
1045.6
1046
1046.51
1047.09
1047.67
1048.17
1048.51
1048.6
1048.34
1047.65
1046.45
1044.69
1042.33
1039.35
1035.77
1031.6
1026.89
1021.65
1015.77
1009.4
1002.71
995.765
988.61
981.255
973.693
965.901
957.841
949.47
940.742
931.61
922.023
911.922
901.249
890.008
878.303
866.213
853.694
840.677
827.207
813.484
799.782
786.302
773.08
760.105
747.416
735.221
723.797
713.225
703.313
693.906
685.02
676.666
668.773
661.22
653.993
647.138
641.113
635.563
630.494
624.314
620.616
594.458
565.038
534.714
510.526
499.244
916.354
1204.15
1412.57
1130.38
1090.61
1088.75
1087.82
1085.75
1083.39
1081.04
1078.71
1076.39
1074.09
1071.81
1069.55
1067.32
1065.12
1062.97
1060.87
1058.83
1056.87
1054.99
1053.22
1051.55
1050.02
1048.62
1047.38
1046.3
1045.4
1044.69
1044.17
1043.85
1043.71
1043.74
1043.93
1044.24
1044.63
1045.04
1045.4
1045.64
1045.67
1045.41
1044.77
1043.69
1042.09
1039.93
1037.2
1033.87
1029.97
1025.52
1020.57
1015.06
1008.95
1002.42
995.555
988.414
981.012
973.343
965.383
957.093
948.428
939.346
929.806
919.76
909.154
897.937
886.15
873.929
861.366
848.398
834.943
821.069
807.046
793.227
779.776
766.611
753.68
741.076
729.053
717.888
707.606
697.978
688.843
680.213
672.111
664.448
657.104
650.064
643.391
637.538
632.133
627.132
621.098
617.527
592.973
564.657
534.949
510.648
499.244
915.349
1136.16
1414.03
1136.41
1091.59
1088.84
1087.99
1085.98
1083.62
1081.25
1078.91
1076.58
1074.26
1071.95
1069.67
1067.41
1065.18
1062.99
1060.85
1058.76
1056.74
1054.8
1052.95
1051.2
1049.56
1048.06
1046.69
1045.48
1044.42
1043.54
1042.84
1042.32
1041.97
1041.79
1041.75
1041.84
1042.01
1042.22
1042.41
1042.51
1042.45
1042.15
1041.53
1040.52
1039.05
1037.07
1034.55
1031.47
1027.83
1023.64
1018.92
1013.75
1007.95
1001.61
994.849
987.718
980.25
972.437
964.26
955.677
946.649
937.137
927.112
916.532
905.349
893.525
881.146
868.393
855.355
841.934
828.046
813.785
799.511
785.673
772.363
759.326
746.482
734.03
722.275
711.463
701.544
692.255
683.437
675.111
667.295
659.901
652.801
645.971
639.506
633.842
628.594
623.67
617.787
614.352
591.299
564.302
535.123
510.722
499.242
911.165
1187.73
1315.22
1134.06
1092.99
1089.06
1088.19
1086.24
1083.88
1081.49
1079.13
1076.78
1074.45
1072.12
1069.81
1067.52
1065.26
1063.03
1060.84
1058.7
1056.62
1054.61
1052.68
1050.84
1049.1
1047.48
1045.98
1044.62
1043.41
1042.35
1041.46
1040.72
1040.15
1039.74
1039.46
1039.3
1039.24
1039.22
1039.2
1039.13
1038.93
1038.54
1037.89
1036.9
1035.51
1033.67
1031.33
1028.46
1025.06
1021.11
1016.64
1011.65
1006.18
1000.08
993.433
986.31
978.748
970.747
962.291
953.34
943.863
933.84
923.246
912.056
900.223
887.737
874.742
861.458
847.952
834.096
819.792
805.177
790.733
777.025
763.986
751.134
738.429
726.219
714.856
704.5
695.02
686.126
677.679
669.699
662.211
655.124
648.301
641.711
635.48
630.027
624.947
620.107
614.382
611.07
589.555
563.818
535.224
510.793
499.231
908.568
1117.21
1424.11
1144.31
1092.94
1089.1
1088.39
1086.52
1084.17
1081.76
1079.39
1077.02
1074.66
1072.31
1069.98
1067.66
1065.36
1063.09
1060.85
1058.66
1056.51
1054.43
1052.41
1050.48
1048.63
1046.89
1045.26
1043.74
1042.36
1041.12
1040.01
1039.06
1038.26
1037.6
1037.06
1036.64
1036.31
1036.03
1035.77
1035.48
1035.09
1034.56
1033.82
1032.79
1031.42
1029.65
1027.44
1024.74
1021.53
1017.79
1013.52
1008.72
1003.38
997.524
991.014
983.889
976.198
967.952
959.141
949.735
939.721
929.093
917.851
905.973
893.426
880.239
866.629
852.841
838.898
824.635
809.967
795.069
780.581
767.184
754.558
741.95
729.448
717.606
706.773
696.985
688.019
679.58
671.555
663.972
656.846
650.107
643.599
637.282
631.313
626.095
621.193
616.44
610.884
607.702
587.677
563.262
535.259
510.829
499.22
905.227
1155.4
1276.5
1136.46
1095.7
1089.63
1088.58
1086.8
1084.47
1082.06
1079.67
1077.28
1074.9
1072.53
1070.16
1067.81
1065.47
1063.16
1060.87
1058.62
1056.41
1054.25
1052.14
1050.11
1048.15
1046.28
1044.51
1042.83
1041.28
1039.84
1038.52
1037.33
1036.29
1035.37
1034.56
1033.86
1033.24
1032.67
1032.12
1031.56
1030.94
1030.2
1029.29
1028.16
1026.73
1024.95
1022.79
1020.17
1017.09
1013.49
1009.36
1004.68
999.431
993.602
987.188
980.032
972.165
963.607
954.357
944.4
933.752
922.436
910.47
897.844
884.534
870.638
856.454
842.22
827.886
813.287
798.346
783.275
768.924
756.08
743.998
731.673
719.47
708.169
698.022
688.91
680.526
672.609
665.063
657.916
651.199
644.843
638.69
632.681
627.006
622.043
617.327
612.672
607.292
604.24
585.711
562.579
535.248
510.841
499.205
1224.5
1409.63
1147.79
1095.86
1089.72
1088.81
1087.11
1084.79
1082.37
1079.96
1077.56
1075.16
1072.76
1070.36
1067.97
1065.6
1063.24
1060.9
1058.58
1056.3
1054.06
1051.87
1049.73
1047.66
1045.66
1043.74
1041.9
1040.16
1038.52
1036.98
1035.56
1034.25
1033.06
1031.96
1030.96
1030.02
1029.13
1028.27
1027.39
1026.47
1025.46
1024.31
1022.97
1021.38
1019.5
1017.27
1014.64
1011.56
1007.99
1003.9
999.23
993.958
988.041
981.45
974.167
966.049
957.101
947.318
936.714
925.348
913.276
900.534
887.122
873.038
858.477
843.812
829.216
814.573
799.753
784.697
769.634
755.671
743.653
732.218
720.203
708.452
697.907
688.609
680.265
672.531
665.197
658.194
651.533
645.262
639.333
633.567
627.906
622.558
617.873
613.346
608.8
603.61
600.692
583.614
561.85
535.163
510.829
499.186
1269.89
1145.01
1098.34
1090.18
1089.07
1087.43
1085.13
1082.7
1080.27
1077.85
1075.42
1073
1070.57
1068.15
1065.73
1063.32
1060.93
1058.56
1056.21
1053.88
1051.6
1049.36
1047.16
1045.03
1042.96
1040.96
1039.03
1037.19
1035.43
1033.76
1032.18
1030.68
1029.28
1027.95
1026.67
1025.43
1024.2
1022.96
1021.68
1020.32
1018.84
1017.2
1015.35
1013.23
1010.79
1007.99
1004.76
1001.06
996.815
991.98
986.498
980.315
973.378
965.634
957.069
947.613
937.192
925.857
913.717
900.858
887.331
873.142
858.327
843.227
828.233
813.394
798.56
783.728
768.798
753.997
740.757
729.865
719.109
707.45
696.388
686.844
678.542
671.042
664.026
657.344
650.943
644.816
639.033
633.575
628.239
622.962
617.979
613.588
609.246
604.817
599.842
597.067
581.455
561.033
535.01
510.782
499.167
1090.18
1089.39
1087.82
1085.5
1083.05
1080.61
1078.17
1075.72
1073.27
1070.81
1068.36
1065.9
1063.45
1061
1058.56
1056.14
1053.74
1051.36
1049.02
1046.7
1044.43
1042.21
1040.04
1037.93
1035.87
1033.88
1031.96
1030.08
1028.27
1026.54
1024.85
1023.2
1021.57
1019.95
1018.29
1016.59
1014.8
1012.89
1010.84
1008.57
1006.06
1003.25
1000.07
996.468
992.378
987.73
982.454
976.481
969.743
962.18
953.738
944.383
934.107
922.908
910.779
897.862
884.249
869.994
855.106
839.706
824.297
809.187
794.249
779.419
764.897
750.444
736.25
724.152
714.667
704.53
693.349
683.323
675.03
667.824
661.227
654.998
649.045
643.312
637.772
632.522
627.57
622.697
617.85
613.269
609.186
605.028
600.723
595.988
593.368
579.233
560.138
534.781
510.715
499.145
1089.79
1088.24
1085.94
1083.47
1081
1078.54
1076.08
1073.6
1071.11
1068.62
1066.12
1063.62
1061.12
1058.62
1056.13
1053.65
1051.18
1048.72
1046.29
1043.89
1041.51
1039.17
1036.86
1034.59
1032.37
1030.17
1027.99
1025.86
1023.76
1021.69
1019.63
1017.58
1015.51
1013.39
1011.19
1008.9
1006.46
1003.85
1001.02
997.923
994.496
990.679
986.405
981.598
976.18
970.074
963.204
955.504
946.919
937.407
926.967
915.589
903.298
890.246
876.591
862.331
847.502
832.104
816.404
801.041
786.073
771.232
756.723
742.977
729.44
716.298
705.828
697.938
688.283
677.879
669.327
662.484
656.435
650.796
645.434
640.299
635.309
630.409
625.738
621.328
616.953
612.577
608.434
604.658
600.672
596.516
592.054
589.599
576.914
559.173
534.485
510.608
499.123
1088.72
1086.45
1083.97
1081.48
1079
1076.51
1074.01
1071.49
1068.96
1066.43
1063.88
1061.32
1058.76
1056.19
1053.63
1051.06
1048.5
1045.95
1043.4
1040.87
1038.35
1035.85
1033.36
1030.9
1028.39
1025.92
1023.46
1020.98
1018.49
1016
1013.49
1010.92
1008.26
1005.5
1002.6
999.505
996.187
992.59
988.661
984.338
979.547
974.212
968.251
961.585
954.135
945.838
936.654
926.555
915.53
903.621
890.852
877.317
863.235
848.763
833.937
818.752
803.154
787.619
772.765
758.222
743.762
730.051
717.691
705.588
694.042
685.689
679.379
670.102
661.065
654.451
649.166
644.311
639.714
635.309
631.084
626.929
622.741
618.69
614.841
610.993
607.142
603.465
599.983
596.162
592.186
588.044
585.77
574.505
558.124
534.105
510.472
499.097
1026.64
1023.88
1021.07
1018.2
1015.29
1012.34
1009.31
1006.16
1002.89
999.451
995.8
991.886
987.651
983.036
977.978
972.397
966.208
959.328
951.675
943.18
933.792
923.488
912.271
900.161
887.191
873.45
859.016
844.086
828.951
813.724
798.397
782.949
767.427
752.658
738.777
724.962
711.318
699.046
688.774
678.669
669.333
663.396
658.212
649.672
642.906
638.58
634.879
631.296
627.857
624.501
621.281
618.095
614.725
611.326
608.054
604.779
601.51
598.31
595.085
591.425
587.704
583.957
581.887
571.957
557.034
533.679
510.31
499.073
1018.68
1015.4
1012.07
1008.59
1004.95
1001.13
997.1
992.811
988.21
983.231
977.797
971.83
965.244
957.933
949.811
940.813
930.885
920
908.165
895.412
881.801
867.401
852.234
836.447
820.215
803.841
787.646
771.66
755.918
740.406
725.282
711.646
698.79
685.934
673.675
663.532
656.04
648.494
641.905
638.035
1012.45
1008.59
1004.49
1000.06
995.39
990.361
984.955
979.099
972.72
965.697
957.905
949.239
939.61
928.998
917.394
904.81
891.284
876.881
861.675
845.769
829.274
812.056
794.345
776.591
759.15
742.167
725.552
709.496
694.108
679.666
667.187
654.827
642.752
632.062
624.132
619.795
615.134
611.276
999.247
993.764
987.945
981.533
974.65
967.13
958.939
949.821
939.666
928.466
916.238
903.062
888.97
874.027
858.314
841.934
824.982
807.583
789.872
772.029
754.011
736.441
719.435
702.631
685.914
669.578
653.809
639.694
627.503
614.447
602.519
592.651
585.491
582.818
579.946
984.779
977.44
969.37
960.749
951.251
941.047
930.061
918.283
905.615
892.165
877.965
863.033
847.452
831.308
814.691
797.686
780.416
762.997
745.576
728.029
711.542
695.302
678.938
662.718
647.048
632.078
619.022
957.389
947.635
937.044
925.854
913.882
901.166
887.551
873.342
858.412
842.858
826.804
810.323
793.492
776.41
759.19
741.942
724.799
707.628
692.208
676.155
660
644.322
629.426
615.43
924.851
912.714
899.859
886.33
872.054
857.293
841.727
825.76
809.428
792.766
775.873
758.85
741.802
724.826
708.029
691.376
858.838
843.457
827.494
811.347
794.834
778.074
761.196
744.293
727.447
710.745
694.283
678.089
815.355
798.944
782.236
765.453
748.65
731.887
715.242
698.807
682.674
666.93
549.228
553.768
562.777
553.444
552.434
552.725
557.134
566.078
577.107
592.428
612.669
634.359
649.898
657.082
654.961
647.974
636.271
621.658
607.636
596.696
590.005
587.616
552.117
554.402
556.188
557.38
557.97
558.083
557.145
556.011
556.296
560.222
568.466
580.566
596.791
617.706
638.338
652.194
657.506
653.785
646.211
633.443
618.189
604.267
593.941
588.157
586.917
543.938
546.713
549.634
552.576
555.079
557.513
559.49
560.843
561.566
561.797
561.452
560.281
560.457
563.998
571.632
583.377
600.436
621.958
641.534
653.762
657.369
652.567
644.355
630.344
614.487
600.707
591.029
586.167
586.183
537.536
539.239
541.27
543.654
546.194
549.152
552.293
555.457
558.547
561.269
563.494
565.07
565.988
566.418
566.122
564.946
565.076
568.236
575.241
587.019
604.94
626.609
644.752
654.946
656.536
651.989
641.521
626.135
609.972
596.666
587.891
584.135
585.452
535.845
536.731
537.91
539.302
541.113
543.286
545.838
548.784
552.007
555.426
558.882
562.199
565.197
567.693
569.51
570.642
571.295
571.164
570.028
570.225
573.055
579.483
591.404
610.096
631.482
647.741
655.585
655.038
649.32
637.27
620.963
604.819
592.291
584.658
582.095
584.666
536.586
536.904
537.481
538.42
539.677
541.282
543.242
545.593
548.356
551.505
554.991
558.697
562.454
566.095
569.405
572.199
574.289
575.668
576.576
576.622
575.582
575.946
578.492
584.464
596.733
616.017
636.512
650.329
655.51
652.865
645.673
631.931
614.826
599.023
587.613
581.384
580.013
583.842
539.179
538.427
538.268
538.598
539.294
540.308
541.662
543.371
545.481
548.014
550.994
554.402
558.17
562.184
566.267
570.242
573.887
577.008
579.405
581.069
582.273
582.522
581.638
582.292
584.625
590.326
603.165
622.71
641.546
652.354
654.644
650.814
640.942
625.302
607.701
592.641
582.698
578.009
577.816
582.984
563.175
555.167
548.764
544.038
541.065
540.232
540.132
540.486
541.219
542.305
543.758
545.596
547.866
550.591
553.802
557.475
561.541
565.881
570.311
574.648
578.658
582.142
584.883
586.875
588.421
588.903
588.241
589.315
591.539
597.246
610.839
630.123
646.422
653.696
652.986
646.926
634.562
617.362
599.65
585.721
577.587
574.344
575.417
582.079
611.103
598.236
586.318
575.497
565.562
557.468
550.978
546.167
543.18
542.252
542.12
542.491
543.274
544.435
545.991
547.962
550.398
553.327
556.78
560.732
565.113
569.8
574.601
579.327
583.733
587.614
590.739
593.112
595.056
595.807
595.449
597.081
599.326
605.417
619.843
638.139
650.946
654.271
650.542
641.692
626.72
608.109
590.688
578.278
572.228
570.564
572.918
581.137
656.917
642.184
627.894
613.742
600.858
588.92
578.064
568.512
560.283
553.631
548.662
545.449
544.409
544.248
544.635
545.466
546.705
548.369
550.478
553.088
556.23
559.937
564.184
568.896
573.949
579.143
584.289
589.125
593.444
597
599.809
602.212
603.279
603.327
605.667
608.115
615.017
630.208
646.547
654.908
654.008
647.25
635.045
617.26
597.541
580.89
570.376
566.41
566.505
570.356
580.176
689.784
674.898
659.554
644.868
630.611
617.053
604.175
592.208
581.289
571.559
563.209
556.412
551.3
547.894
546.725
546.528
546.928
547.807
549.125
550.899
553.153
555.946
559.31
563.281
567.835
572.896
578.335
583.949
589.544
594.85
599.653
603.693
607.001
609.936
611.377
611.953
615.161
618.045
626.227
641.842
655.049
658.122
652.817
642.468
626.647
606.119
585.814
570.464
562.153
560.274
562.252
567.773
579.219
943.894
940.083
935.921
931.69
927.423
923.132
918.841
914.537
910.241
905.945
901.665
897.394
893.145
888.914
884.713
880.539
876.4
872.3
868.241
864.231
860.274
856.375
852.539
848.772
845.076
841.461
837.923
834.467
831.09
827.79
824.554
821.212
817.636
813.775
809.535
804.798
799.43
793.291
786.234
778.154
768.949
758.6
747.141
734.658
721.288
707.241
692.332
677.528
662.798
648.216
634.034
620.413
607.547
595.56
584.592
574.794
566.331
559.387
554.126
550.531
549.213
548.971
549.379
550.305
551.704
553.592
555.996
558.978
562.573
566.821
571.696
577.121
582.968
589.03
595.11
600.924
606.26
610.843
614.724
618.274
620.164
621.415
625.659
629.28
639.128
654.516
663.27
660.414
650.514
635.988
616.207
593.398
573.261
559.742
553.819
554.105
557.987
565.236
578.288
943.862
940.05
935.886
931.655
927.386
923.094
918.803
914.499
910.203
905.906
901.626
897.356
893.108
888.878
884.678
880.506
876.37
872.272
868.217
864.21
860.259
856.366
852.537
848.779
845.095
841.49
837.966
834.525
831.167
827.886
824.678
821.451
817.993
814.272
810.17
805.583
800.379
794.403
787.528
779.619
770.605
760.433
749.152
736.842
723.626
709.718
695.399
680.755
666.069
651.582
637.482
623.93
611.088
599.095
588.088
578.214
569.644
562.562
557.147
553.376
551.884
551.588
552
552.972
554.452
556.457
559.017
562.195
566.029
570.564
575.774
581.582
587.859
594.397
600.998
607.368
613.29
618.481
623.019
627.276
629.714
631.818
637.271
641.97
653.704
667.825
670.808
661.646
646.827
627.559
603.863
579.527
560.472
549.268
545.673
548.102
553.875
562.812
577.408
943.877
940.056
935.891
931.657
927.387
923.093
918.801
914.495
910.199
905.901
901.621
897.349
893.101
888.872
884.673
880.5
876.366
872.27
868.219
864.216
860.27
856.383
852.562
848.812
845.14
841.548
838.039
834.614
831.276
828.018
824.832
821.689
818.373
814.784
810.842
806.418
801.395
795.61
788.935
781.242
772.45
762.508
751.455
739.36
726.368
712.662
698.453
683.985
669.455
655.094
641.083
627.6
614.787
602.804
591.766
581.831
573.161
565.946
560.378
556.446
554.754
554.394
554.805
555.82
557.382
559.507
562.225
565.605
569.686
574.52
580.077
586.283
593.013
600.061
607.224
614.198
620.772
626.642
631.927
636.997
640.104
643.27
650.113
656.242
669.77
681.221
677.286
661.659
641.446
617.135
590.051
565.367
548.346
539.719
538.187
542.553
550.061
560.58
576.6
943.884
940.054
935.886
931.65
927.379
923.084
918.79
914.483
910.186
905.888
901.606
897.335
893.087
888.858
884.659
880.488
876.356
872.262
868.214
864.215
860.274
856.393
852.58
848.839
845.177
841.597
838.102
834.694
831.375
828.138
824.975
821.882
818.704
815.253
811.462
807.211
802.356
796.764
790.297
782.825
774.253
764.548
753.727
741.867
729.1
715.617
701.616
687.322
672.953
658.726
644.829
631.423
618.664
606.695
595.64
585.655
576.892
569.552
563.831
559.758
557.84
557.402
557.805
558.861
560.505
562.75
565.632
569.22
573.557
578.695
584.613
591.236
598.447
606.036
613.807
621.442
628.737
635.365
641.494
647.494
651.421
655.884
664.289
672.171
686.966
694.056
682.375
660.244
634.205
604.975
575.604
552.048
537.861
531.73
531.982
537.805
546.696
558.607
575.888
943.885
940.054
935.884
931.647
927.374
923.078
918.782
914.474
910.175
905.877
901.596
897.324
893.075
888.847
884.648
880.478
876.347
872.256
868.211
864.216
860.279
856.404
852.599
848.867
845.215
841.647
838.167
834.776
831.473
828.257
825.119
822.047
818.979
815.686
812.049
807.965
803.297
797.899
791.645
784.398
776.065
766.598
756.021
744.412
731.885
718.631
704.846
690.753
676.567
662.494
648.717
635.408
622.717
610.775
599.719
589.691
580.852
573.393
567.522
563.313
561.154
560.626
561.014
562.106
563.832
566.199
569.247
573.049
577.647
583.101
589.392
596.453
604.167
612.34
620.765
629.121
637.214
644.691
651.773
658.826
663.755
669.777