/*--------------------------------*- C++ -*----------------------------------*\
  =========                 |
  \\      /  F ield         | OpenFOAM: The Open Source CFD Toolbox
   \\    /   O peration     | Website:  https://openfoam.org
    \\  /    A nd           | Version:  9
     \\/     M anipulation  |
\*---------------------------------------------------------------------------*/
FoamFile
{
    format      ascii;
    class       volVectorField;
    location    "750";
    object      U;
}
// * * * * * * * * * * * * * * * * * * * * * * * * * * * * * * * * * * * * * //

dimensions      [0 1 -1 0 0 0 0];

internalField   nonuniform List<vector> 
13538
(
(1.15168 -6.12645e-06 1.02786e-20)
(1.15178 -1.57763e-05 -2.16532e-20)
(1.15186 -3.54973e-05 -1.04629e-20)
(1.15193 -5.9138e-05 2.26655e-20)
(1.15199 -8.81999e-05 -1.18976e-20)
(1.15204 -0.000121393 -7.59955e-22)
(1.15209 -0.000158106 -1.20516e-20)
(1.15214 -0.000197995 0)
(1.15219 -0.000240718 -4.06471e-22)
(1.15224 -0.00028613 4.30814e-22)
(1.15228 -0.000334126 1.37029e-20)
(1.15233 -0.000384713 -4.16892e-22)
(1.15238 -0.000437961 -6.37935e-21)
(1.15243 -0.000494026 -6.98423e-21)
(1.15248 -0.000553112 -2.15491e-22)
(1.15254 -0.000615517 3.48156e-21)
(1.15259 -0.000681607 -3.0553e-21)
(1.15266 -0.000751801 0)
(1.15272 -0.000826623 -2.52354e-21)
(1.1528 -0.000906667 8.3647e-22)
(1.15287 -0.000992592 -2.37401e-22)
(1.15296 -0.00108518 0)
(1.15305 -0.00118526 4.30193e-22)
(1.15315 -0.00129381 -9.86528e-22)
(1.15327 -0.00141187 8.35651e-22)
(1.15339 -0.00154063 1.26449e-21)
(1.15352 -0.00168139 0)
(1.15366 -0.0018356 2.53278e-21)
(1.15382 -0.00200486 2.92645e-21)
(1.15399 -0.00219097 3.79666e-21)
(1.15418 -0.00239592 -2.29957e-23)
(1.15438 -0.00262189 2.5287e-21)
(1.1546 -0.00287137 -3.66293e-21)
(1.15484 -0.00314706 3.97979e-21)
(1.1551 -0.0034519 0)
(1.15537 -0.00378927 -5.82478e-22)
(1.15567 -0.00416261 -2.32748e-22)
(1.15599 -0.00457591 4.58713e-21)
(1.15633 -0.00503325 -9.68983e-21)
(1.1567 -0.00553915 -1.09005e-20)
(1.15708 -0.00609829 -6.99711e-21)
(1.15749 -0.00671575 -4.71317e-22)
(1.15793 -0.00739659 -8.27882e-21)
(1.15838 -0.00814654 6.2003e-22)
(1.15886 -0.00897087 -3.41014e-22)
(1.15936 -0.0098757 -6.55135e-21)
(1.15988 -0.0108669 -6.51572e-21)
(1.16042 -0.0119506 1.67571e-20)
(1.16097 -0.0131332 4.28445e-21)
(1.16154 -0.0144207 -5.50079e-21)
(1.16213 -0.0158195 5.95927e-21)
(1.16272 -0.0173359 6.37266e-22)
(1.16332 -0.0189762 7.24229e-21)
(1.16392 -0.0207463 1.28224e-23)
(1.16453 -0.0226524 -2.79625e-22)
(1.16513 -0.0246994 -4.60307e-21)
(1.16573 -0.0268932 3.43687e-22)
(1.16632 -0.0292374 -6.53094e-21)
(1.16689 -0.0317369 6.44158e-21)
(1.16746 -0.0343947 6.14259e-22)
(1.168 -0.0372133 2.52801e-22)
(1.16854 -0.0401949 -4.77383e-21)
(1.16905 -0.0433406 0)
(1.16955 -0.0466517 1.0774e-20)
(1.17004 -0.0501274 5.51438e-21)
(1.17052 -0.0537688 8.1547e-22)
(1.17101 -0.0575738 0)
(1.17151 -0.0615433 -4.0212e-21)
(1.17203 -0.065674 -8.46163e-21)
(1.17258 -0.0699673 0)
(1.17319 -0.0744181 -5.36231e-21)
(1.17388 -0.0790267 5.2068e-21)
(1.17466 -0.0837884 5.83514e-21)
(1.17556 -0.0887021 0)
(1.17661 -0.0937588 -4.11292e-21)
(1.17784 -0.0989534 -4.66316e-21)
(1.17928 -0.104279 4.06304e-23)
(1.18096 -0.109715 -1.35819e-22)
(1.18293 -0.115255 -6.22301e-21)
(1.18522 -0.120859 -3.80886e-21)
(1.18786 -0.126534 8.68982e-21)
(1.1909 -0.132172 -5.22141e-21)
(1.19437 -0.137862 -6.04939e-21)
(1.19832 -0.143334 7.01307e-21)
(1.20273 -0.148874 7.75945e-21)
(1.20772 -0.153868 -4.72064e-21)
(1.21312 -0.159093 5.48041e-21)
(1.21925 -0.163173 0)
(1.22554 -0.167969 7.3247e-21)
(1.23286 -0.170561 -5.48255e-22)
(1.23974 -0.175009 6.04815e-21)
(1.24833 -0.175364 5.84909e-23)
(1.25502 -0.180012 -3.48917e-22)
(1.26459 -0.176938 -4.3069e-22)
(1.26941 -0.182974 0)
(1.29216 -0.174826 -1.77242e-20)
(1.32826 -0.1919 0)
(1.31857 -0.192328 -4.02908e-22)
(0.735297 -0.115213 7.58594e-22)
(1.15167 -8.6552e-06 2.19565e-20)
(1.15177 -2.1663e-05 -1.59848e-21)
(1.15185 -4.35736e-05 2.39431e-20)
(1.15191 -6.83525e-05 -2.45146e-20)
(1.15197 -9.78161e-05 -1.36433e-20)
(1.15203 -0.000131297 -1.09898e-20)
(1.15208 -0.000168202 -1.87445e-21)
(1.15212 -0.000208358 1.50065e-20)
(1.15217 -0.000251437 0)
(1.15222 -0.000297365 1.39804e-20)
(1.15226 -0.000346043 2.48054e-22)
(1.15231 -0.000397518 8.58546e-22)
(1.15235 -0.000451861 6.44752e-21)
(1.1524 -0.000509242 1.36441e-20)
(1.15245 -0.000569889 -7.14257e-21)
(1.1525 -0.00063409 -1.02139e-20)
(1.15256 -0.000702211 -3.33968e-21)
(1.15262 -0.0007747 3.47231e-21)
(1.15268 -0.000852066 4.96734e-21)
(1.15275 -0.000934904 0)
(1.15282 -0.00102389 2.7955e-21)
(1.1529 -0.00111978 -8.944e-23)
(1.15299 -0.00122344 -3.77603e-23)
(1.15309 -0.00133581 0)
(1.15319 -0.00145796 0)
(1.1533 -0.00159107 -1.61492e-21)
(1.15343 -0.00173643 -5.04953e-23)
(1.15356 -0.0018955 2.02116e-22)
(1.15371 -0.00206987 0)
(1.15387 -0.00226133 0)
(1.15405 -0.00247184 2.73383e-22)
(1.15424 -0.00270358 -5.92509e-21)
(1.15444 -0.00295898 3.57787e-22)
(1.15466 -0.0032407 -3.9236e-21)
(1.1549 -0.00355169 -4.22336e-21)
(1.15516 -0.00389512 -5.60563e-21)
(1.15544 -0.00427453 -5.97894e-21)
(1.15574 -0.00469368 7.5298e-21)
(1.15606 -0.00515663 4.60923e-21)
(1.1564 -0.00566779 4.03657e-21)
(1.15676 -0.0062317 7.01653e-22)
(1.15714 -0.00685335 0)
(1.15754 -0.00753772 8.14242e-21)
(1.15796 -0.00829029 8.43916e-21)
(1.1584 -0.00911639 0)
(1.15886 -0.0100219 6.05038e-21)
(1.15934 -0.0110125 1.30573e-20)
(1.15983 -0.0120945 -7.75973e-21)
(1.16034 -0.0132735 -5.35891e-22)
(1.16085 -0.014556 -7.68487e-21)
(1.16138 -0.0159478 -1.60831e-20)
(1.16191 -0.0174556 6.93701e-21)
(1.16245 -0.0190848 -7.70767e-21)
(1.16299 -0.0208417 0)
(1.16353 -0.0227323 -8.14436e-21)
(1.16406 -0.0247613 1.06299e-20)
(1.16459 -0.0269345 -6.07816e-22)
(1.1651 -0.0292562 -5.14119e-21)
(1.1656 -0.0317307 -1.20773e-20)
(1.16609 -0.0343613 7.07113e-21)
(1.16656 -0.0371516 4.63277e-22)
(1.16701 -0.0401034 1.60728e-23)
(1.16744 -0.0432193 7.60924e-21)
(1.16786 -0.0465007 -3.71028e-22)
(1.16827 -0.0499477 -5.5949e-21)
(1.16867 -0.0535626 1.10492e-20)
(1.16907 -0.0573445 -6.15003e-21)
(1.16949 -0.0612951 6.69484e-21)
(1.16993 -0.0654116 4.2263e-21)
(1.1704 -0.0696972 -5.10085e-22)
(1.17093 -0.0741479 2.74782e-22)
(1.17153 -0.0787661 -7.35312e-22)
(1.17223 -0.0835468 -5.92628e-21)
(1.17305 -0.0884915 -2.00103e-22)
(1.17402 -0.0935923 4.37369e-22)
(1.17517 -0.0988456 -3.92916e-21)
(1.17653 -0.104244 1.47452e-22)
(1.17815 -0.109771 -1.55434e-22)
(1.18005 -0.115422 6.29971e-21)
(1.18228 -0.121153 -6.47687e-21)
(1.18489 -0.126981 -4.34696e-21)
(1.1879 -0.132788 7.83118e-23)
(1.19136 -0.138675 -8.24089e-23)
(1.19533 -0.144348 0)
(1.19979 -0.150143 -4.20952e-22)
(1.20485 -0.155349 0)
(1.21036 -0.160897 1.02805e-20)
(1.21664 -0.165145 6.00719e-21)
(1.22311 -0.170361 0)
(1.23068 -0.172993 -2.7176e-22)
(1.23775 -0.178011 2.85486e-22)
(1.24671 -0.178125 -1.08435e-20)
(1.25359 -0.183624 1.30041e-20)
(1.26393 -0.179792 -4.29179e-22)
(1.26829 -0.18689 -1.30625e-22)
(1.28858 -0.176908 8.98807e-21)
(1.32007 -0.1962 0)
(1.33301 -0.200385 0)
(0.769823 -0.125972 -2.87896e-21)
(1.15167 -1.07106e-05 2.27069e-22)
(1.15177 -2.64425e-05 1.85843e-20)
(1.15184 -4.98964e-05 -1.94208e-20)
(1.1519 -7.5483e-05 2.88051e-21)
(1.15195 -0.000105088 8.93522e-21)
(1.15201 -0.000138539 1.28852e-21)
(1.15205 -0.000175346 1.43402e-20)
(1.1521 -0.000215424 -3.041e-21)
(1.15215 -0.000258524 1.55606e-20)
(1.15219 -0.0003046 -1.55749e-20)
(1.15223 -0.000353589 -7.02075e-21)
(1.15228 -0.000405555 0)
(1.15232 -0.000460587 -7.46581e-21)
(1.15237 -0.000518875 -6.24978e-21)
(1.15242 -0.000580649 1.357e-20)
(1.15247 -0.000646219 7.7197e-21)
(1.15252 -0.000715958 -4.73197e-21)
(1.15257 -0.00079032 -3.0888e-21)
(1.15264 -0.000869825 3.5685e-22)
(1.1527 -0.00095508 -2.91406e-22)
(1.15277 -0.00104676 -1.85867e-21)
(1.15285 -0.00114565 9.28892e-23)
(1.15293 -0.0012526 1.5835e-22)
(1.15302 -0.00136858 -1.41241e-22)
(1.15312 -0.00149466 1.9436e-22)
(1.15323 -0.00163202 2.34265e-21)
(1.15335 -0.00178197 -1.50017e-21)
(1.15347 -0.00194597 0)
(1.15361 -0.00212562 -2.84734e-22)
(1.15376 -0.00232268 3.01813e-22)
(1.15393 -0.00253914 -4.69597e-22)
(1.1541 -0.00277714 -3.50088e-21)
(1.15429 -0.00303909 0)
(1.1545 -0.0033276 -4.35742e-22)
(1.15472 -0.00364556 4.62979e-21)
(1.15496 -0.00399612 3.79512e-21)
(1.15522 -0.00438267 2.04511e-21)
(1.1555 -0.00480893 -8.59769e-21)
(1.15579 -0.0052788 1.93101e-21)
(1.1561 -0.00579659 7.40683e-21)
(1.15643 -0.00636671 0)
(1.15678 -0.00699393 7.83095e-22)
(1.15715 -0.00768318 -8.30011e-22)
(1.15753 -0.00843972 -8.32989e-21)
(1.15793 -0.0092687 -1.16672e-21)
(1.15835 -0.0101759 1.23689e-21)
(1.15878 -0.0111669 -6.11644e-21)
(1.15922 -0.0122476 8.43022e-22)
(1.15968 -0.0134237 -8.93651e-22)
(1.16014 -0.0147014 9.69006e-22)
(1.16061 -0.0160865 1.10317e-21)
(1.16108 -0.0175855 6.61384e-22)
(1.16156 -0.0192039 1.00751e-20)
(1.16203 -0.0209476 -5.97702e-21)
(1.16251 -0.0228227 8.43231e-21)
(1.16297 -0.0248341 -9.57561e-22)
(1.16342 -0.0269877 0)
(1.16386 -0.0292877 1.3906e-20)
(1.16429 -0.0317386 5.58504e-21)
(1.1647 -0.0343446 0)
(1.16509 -0.037109 0)
(1.16546 -0.040035 -7.17002e-21)
(1.16581 -0.0431248 -7.59935e-21)
(1.16615 -0.0463815 -4.40921e-21)
(1.16648 -0.0498057 9.2405e-21)
(1.1668 -0.0534006 -5.84272e-21)
(1.16712 -0.0571657 9.8972e-21)
(1.16746 -0.0611047 -5.20927e-21)
(1.16781 -0.0652161 -6.18231e-21)
(1.16821 -0.0695035 -4.47468e-22)
(1.16865 -0.0739643 4.74314e-22)
(1.16917 -0.0786029 -5.22783e-21)
(1.16979 -0.0834155 2.73989e-22)
(1.17052 -0.0884034 -4.26332e-21)
(1.17141 -0.0935636 -5.98151e-21)
(1.17248 -0.0988882 3.74899e-21)
(1.17376 -0.104378 -7.42667e-21)
(1.1753 -0.110012 4.32174e-21)
(1.17714 -0.11579 -5.06381e-21)
(1.17931 -0.121667 7.10658e-21)
(1.18187 -0.12766 -7.50265e-21)
(1.18486 -0.133652 -2.92557e-22)
(1.18831 -0.13975 -9.66382e-21)
(1.19229 -0.145637 0)
(1.19679 -0.151687 -7.75771e-21)
(1.20193 -0.15711 2.54773e-22)
(1.20755 -0.162969 -2.03414e-20)
(1.21398 -0.167386 5.72935e-21)
(1.22063 -0.172986 -7.01362e-21)
(1.22844 -0.17565 -8.04632e-21)
(1.23572 -0.181182 -9.42237e-21)
(1.24506 -0.181043 2.17509e-20)
(1.25211 -0.187288 -1.27549e-20)
(1.26312 -0.182795 1.41308e-20)
(1.2675 -0.191044 6.49726e-23)
(1.28748 -0.179735 -6.83626e-23)
(1.3139 -0.199563 -6.6109e-22)
(1.33873 -0.204808 -1.05427e-20)
(0.78866 -0.13319 2.12301e-20)
(1.15166 -1.21971e-05 2.08992e-20)
(1.15176 -3.04881e-05 0)
(1.15183 -5.54837e-05 2.77569e-21)
(1.15189 -8.20809e-05 -2.94321e-21)
(1.15194 -0.000112075 -2.45354e-20)
(1.15199 -0.000145681 3.79807e-20)
(1.15204 -0.000182552 0)
(1.15208 -0.000222667 -1.1662e-20)
(1.15212 -0.000265874 -1.88851e-20)
(1.15217 -0.000312152 3.6226e-21)
(1.15221 -0.000361484 1.48438e-20)
(1.15225 -0.000413952 1.33326e-20)
(1.15229 -0.000469664 2.52388e-21)
(1.15234 -0.000528818 -8.73545e-21)
(1.15238 -0.000591668 -1.60599e-20)
(1.15243 -0.000658527 9.68309e-22)
(1.15248 -0.000729783 7.91095e-21)
(1.15253 -0.00080589 -9.21547e-22)
(1.15259 -0.000887381 -3.12224e-21)
(1.15265 -0.000974863 -3.4148e-22)
(1.15272 -0.00106902 3.6197e-22)
(1.15279 -0.00117064 0)
(1.15287 -0.00128059 0)
(1.15295 -0.00139983 1.73675e-22)
(1.15305 -0.00152943 -3.34421e-22)
(1.15315 -0.00167059 -3.72862e-22)
(1.15326 -0.00182461 1.77125e-21)
(1.15338 -0.00199295 1.65483e-21)
(1.15351 -0.0021772 -2.35639e-21)
(1.15365 -0.00237913 4.03334e-21)
(1.1538 -0.00260069 -1.04391e-21)
(1.15396 -0.00284402 4.86601e-21)
(1.15414 -0.00311148 8.89745e-23)
(1.15433 -0.00340566 -6.53571e-22)
(1.15454 -0.00372939 6.32725e-21)
(1.15476 -0.00408572 3.2617e-21)
(1.155 -0.00447799 4.54504e-21)
(1.15525 -0.00490981 6.83976e-22)
(1.15552 -0.00538502 7.22396e-21)
(1.15581 -0.00590774 -9.31921e-21)
(1.15611 -0.00648231 0)
(1.15643 -0.00711337 -9.91669e-21)
(1.15676 -0.00780568 0)
(1.15711 -0.00856434 -7.41883e-21)
(1.15747 -0.00939443 1.98063e-21)
(1.15784 -0.0103015 7.33551e-21)
(1.15823 -0.011291 9.51841e-21)
(1.15863 -0.0123687 -9.24577e-21)
(1.15903 -0.0135402 -8.40774e-21)
(1.15944 -0.0148116 8.55735e-21)
(1.15986 -0.0161886 1.08037e-21)
(1.16027 -0.0176772 1.14699e-21)
(1.16069 -0.0192833 -1.31366e-20)
(1.1611 -0.0210126 7.25486e-21)
(1.1615 -0.0228712 -5.63906e-21)
(1.1619 -0.0248639 -6.19997e-21)
(1.16228 -0.0269966 6.79801e-21)
(1.16265 -0.0292738 -1.61619e-20)
(1.163 -0.0317003 -8.11119e-21)
(1.16334 -0.0342807 -8.82892e-21)
(1.16365 -0.0370181 0)
(1.16394 -0.0399169 1.7536e-21)
(1.16422 -0.0429794 -1.55166e-21)
(1.16448 -0.0462099 8.32794e-22)
(1.16472 -0.0496095 -8.50167e-21)
(1.16496 -0.0531823 -1.21359e-23)
(1.1652 -0.0569283 -4.23992e-21)
(1.16545 -0.060854 0)
(1.16572 -0.0649566 5.06701e-21)
(1.16602 -0.0692423 6.99746e-22)
(1.16638 -0.0737112 5.64259e-21)
(1.16681 -0.078365 0)
(1.16733 -0.0832047 3.56121e-21)
(1.16798 -0.0882331 4.97278e-21)
(1.16877 -0.0934456 5.6865e-21)
(1.16975 -0.0988401 0)
(1.17095 -0.104416 1.19578e-21)
(1.1724 -0.110154 -4.39211e-21)
(1.17416 -0.116056 5.14467e-21)
(1.17626 -0.122078 3.79655e-22)
(1.17875 -0.128241 6.76883e-21)
(1.18169 -0.134421 -7.10846e-21)
(1.18512 -0.140734 1.87644e-20)
(1.1891 -0.146848 0)
(1.19363 -0.153164 0)
(1.19882 -0.158828 0)
(1.20455 -0.16501 1.00628e-20)
(1.21112 -0.169631 -4.71513e-22)
(1.21795 -0.175632 7.207e-21)
(1.22601 -0.178363 7.86577e-21)
(1.23351 -0.18442 9.49595e-21)
(1.24325 -0.184068 -1.06692e-20)
(1.25045 -0.191053 1.23616e-20)
(1.26224 -0.185925 -2.81698e-20)
(1.26644 -0.195256 0)
(1.28622 -0.182879 -8.91285e-21)
(1.30678 -0.202807 6.59769e-22)
(1.34458 -0.208418 1.03798e-20)
(0.810839 -0.140041 -4.0335e-20)
(1.15166 -1.33052e-05 -4.08521e-20)
(1.15175 -3.37625e-05 -4.30389e-20)
(1.15182 -6.01305e-05 0)
(1.15187 -8.77475e-05 0)
(1.15192 -0.000118204 2.42476e-20)
(1.15197 -0.000152026 -2.51954e-20)
(1.15202 -0.000189008 0)
(1.15206 -0.000229182 3.37204e-21)
(1.1521 -0.000272491 -5.31246e-21)
(1.15214 -0.000318944 5.57208e-23)
(1.15218 -0.000368565 -1.2781e-20)
(1.15222 -0.000421454 -1.31102e-20)
(1.15226 -0.000477747 -1.02211e-20)
(1.1523 -0.00053766 5.7639e-21)
(1.15235 -0.000601454 1.06745e-20)
(1.15239 -0.000669449 -1.9628e-21)
(1.15244 -0.000742045 1.00564e-21)
(1.15249 -0.000819708 0)
(1.15255 -0.000902972 7.59965e-21)
(1.1526 -0.00099245 0)
(1.15267 -0.00108884 0)
(1.15273 -0.00119292 -2.92957e-21)
(1.15281 -0.00130555 0)
(1.15289 -0.00142772 0)
(1.15297 -0.0015605 -1.05251e-21)
(1.15307 -0.00170507 -5.65215e-22)
(1.15317 -0.00186275 2.70885e-22)
(1.15328 -0.00203498 -1.77893e-21)
(1.1534 -0.00222336 2.53187e-21)
(1.15353 -0.00242963 -3.86471e-21)
(1.15367 -0.00265574 -4.07767e-21)
(1.15382 -0.0029038 8.24921e-22)
(1.15399 -0.00317613 -8.74432e-22)
(1.15416 -0.00347528 -4.31471e-21)
(1.15435 -0.00380401 -6.2567e-21)
(1.15456 -0.00416533 -7.5417e-21)
(1.15477 -0.00456251 -7.74274e-21)
(1.155 -0.00499904 4.60268e-21)
(1.15525 -0.00547865 -6.90794e-23)
(1.15551 -0.0060054 -8.15571e-22)
(1.15578 -0.00658346 -7.38279e-21)
(1.15607 -0.00721737 9.80775e-21)
(1.15637 -0.00791167 0)
(1.15668 -0.00867144 4.88161e-21)
(1.15701 -0.00950159 8.9274e-21)
(1.15734 -0.0104075 -1.65033e-20)
(1.15769 -0.0113945 -1.75762e-20)
(1.15804 -0.0124681 9.33201e-21)
(1.15839 -0.013634 -2.97111e-21)
(1.15875 -0.014898 -4.14149e-21)
(1.15911 -0.0162657 5.74249e-21)
(1.15947 -0.0177432 -7.05675e-21)
(1.15983 -0.0193362 0)
(1.16018 -0.0210502 0)
(1.16052 -0.0228913 5.57954e-21)
(1.16084 -0.0248644 6.84951e-21)
(1.16116 -0.0269757 -1.2312e-20)
(1.16146 -0.0292296 -4.19522e-22)
(1.16173 -0.0316312 8.92809e-21)
(1.16199 -0.0341851 8.73573e-21)
(1.16223 -0.0368955 0)
(1.16244 -0.0397667 4.21344e-22)
(1.16264 -0.042802 1.25149e-21)
(1.16282 -0.0460059 1.0904e-23)
(1.16298 -0.0493802 -7.22027e-22)
(1.16314 -0.0529306 -7.93559e-22)
(1.16329 -0.0566581 7.20451e-21)
(1.16345 -0.0605686 1.19187e-23)
(1.16363 -0.0646629 -3.99191e-21)
(1.16385 -0.0689461 0)
(1.16411 -0.0734208 -1.33472e-21)
(1.16445 -0.0780906 0)
(1.16488 -0.0829573 -3.525e-21)
(1.16543 -0.0880239 0)
(1.16612 -0.0932901 4.181e-21)
(1.167 -0.0987534 -4.87717e-21)
(1.1681 -0.104415 1.18805e-20)
(1.16946 -0.11026 -4.06763e-22)
(1.17112 -0.116287 7.00724e-21)
(1.17314 -0.122459 5.87863e-22)
(1.17557 -0.128793 -5.62665e-21)
(1.17845 -0.135171 8.26506e-21)
(1.18184 -0.141702 -9.87871e-21)
(1.1858 -0.14806 9.5343e-21)
(1.19035 -0.154646 1.64002e-21)
(1.19559 -0.160578 -3.9205e-22)
(1.20142 -0.167082 7.83073e-23)
(1.20813 -0.171943 -1.21551e-20)
(1.21513 -0.17834 1.31969e-20)
(1.22345 -0.181178 -1.5515e-20)
(1.23119 -0.187748 6.11862e-22)
(1.24134 -0.187233 -1.12553e-20)
(1.24869 -0.194904 -1.26214e-20)
(1.26126 -0.189217 2.76588e-20)
(1.26533 -0.199539 -1.60169e-20)
(1.28555 -0.186323 8.90256e-21)
(1.29999 -0.205814 -1.10878e-20)
(1.34866 -0.210992 6.6683e-22)
(0.830131 -0.145978 3.5936e-20)
(1.15166 -1.41572e-05 0)
(1.15174 -3.65071e-05 -6.19579e-22)
(1.15181 -6.40937e-05 5.59748e-21)
(1.15186 -9.27057e-05 -5.93675e-21)
(1.15191 -0.00012368 2.79354e-20)
(1.15196 -0.000157773 -5.90279e-23)
(1.152 -0.000194911 -6.84705e-23)
(1.15204 -0.000235177 2.45568e-20)
(1.15208 -0.000278593 -1.80793e-20)
(1.15212 -0.000325204 -1.1282e-20)
(1.15216 -0.000375077 1.55002e-20)
(1.15219 -0.000428336 -1.92014e-21)
(1.15223 -0.000485137 1.57579e-20)
(1.15227 -0.000545709 2.07518e-21)
(1.15231 -0.000610327 -8.43545e-21)
(1.15236 -0.000679327 0)
(1.1524 -0.000753112 -1.04805e-20)
(1.15245 -0.000832152 9.54859e-21)
(1.1525 -0.000916991 1.74591e-21)
(1.15255 -0.00100825 0)
(1.15261 -0.00110661 0)
(1.15268 -0.00121288 2.18288e-21)
(1.15274 -0.00132792 1.05666e-21)
(1.15282 -0.00145269 -5.35669e-22)
(1.1529 -0.00158829 1.27542e-21)
(1.15299 -0.00173588 -1.11701e-21)
(1.15308 -0.00189679 -5.97542e-23)
(1.15318 -0.00207245 5.1218e-22)
(1.15329 -0.00226444 -1.20693e-21)
(1.15341 -0.0024745 0)
(1.15354 -0.00270455 6.52922e-21)
(1.15368 -0.00295668 5.30272e-22)
(1.15383 -0.00323317 0)
(1.15399 -0.00353654 4.27055e-21)
(1.15417 -0.00386946 0)
(1.15435 -0.00423492 7.82085e-22)
(1.15455 -0.00463607 6.83461e-21)
(1.15476 -0.00507635 -3.44456e-21)
(1.15498 -0.00555938 -6.54886e-21)
(1.15521 -0.00608909 0)
(1.15546 -0.00666957 6.42336e-21)
(1.15572 -0.00730517 -6.25432e-21)
(1.15599 -0.0080004 0)
(1.15626 -0.00876014 1.33275e-21)
(1.15655 -0.0095892 -7.73133e-21)
(1.15685 -0.0104927 1.40974e-20)
(1.15715 -0.011476 7.17378e-21)
(1.15745 -0.0125445 1.07656e-21)
(1.15776 -0.0137037 1.02299e-20)
(1.15807 -0.0149592 3.06435e-21)
(1.15838 -0.0163166 1.41561e-21)
(1.15868 -0.0177817 6.9876e-21)
(1.15898 -0.0193604 -8.96695e-22)
(1.15927 -0.0210581 1.93292e-21)
(1.15954 -0.0228809 3.05495e-23)
(1.15981 -0.0248338 7.12252e-21)
(1.16005 -0.0269227 5.55456e-21)
(1.16028 -0.0291524 6.03713e-21)
(1.16049 -0.0315283 0)
(1.16067 -0.0340555 -5.51188e-21)
(1.16083 -0.0367379 0)
(1.16097 -0.0395808 4.10052e-21)
(1.16109 -0.042588 0)
(1.16118 -0.0457642 0)
(1.16126 -0.0491129 0)
(1.16133 -0.0526399 0)
(1.1614 -0.0563467 -1.08648e-21)
(1.16147 -0.0602415 -5.11463e-21)
(1.16156 -0.0643253 3.46224e-21)
(1.16169 -0.0686045 2.61249e-21)
(1.16186 -0.0730833 -4.2112e-21)
(1.16209 -0.0777661 0)
(1.16242 -0.082657 5.95528e-22)
(1.16286 -0.0877601 -6.32242e-22)
(1.16345 -0.0930775 -3.60325e-21)
(1.16423 -0.0986087 3.76295e-21)
(1.16522 -0.104354 -3.96362e-21)
(1.16647 -0.110305 -1.38789e-21)
(1.16804 -0.116459 -6.71642e-21)
(1.16996 -0.122781 0)
(1.1723 -0.129288 1.04566e-20)
(1.1751 -0.135871 -8.87685e-22)
(1.17844 -0.142627 -7.16703e-21)
(1.18237 -0.149242 -9.84583e-21)
(1.18693 -0.156102 1.24575e-20)
(1.19221 -0.162329 -7.99918e-21)
(1.19813 -0.169163 6.08305e-22)
(1.20496 -0.174304 9.55494e-23)
(1.21216 -0.181086 -1.41151e-20)
(1.22073 -0.184097 1.46427e-20)
(1.22871 -0.191149 4.76633e-22)
(1.23929 -0.190541 1.13351e-20)
(1.24683 -0.198842 -8.13606e-22)
(1.26019 -0.192683 -1.32343e-20)
(1.26407 -0.203855 1.65419e-20)
(1.28514 -0.189957 0)
(1.29364 -0.208846 -1.05014e-20)
(1.35201 -0.213102 -1.36869e-21)
(0.849231 -0.151607 -1.61945e-20)
(1.15165 -1.48272e-05 0)
(1.15173 -3.88042e-05 9.14904e-20)
(1.15179 -6.74513e-05 -5.6872e-21)
(1.15185 -9.69932e-05 2.39711e-20)
(1.1519 -0.000128503 -2.46398e-20)
(1.15194 -0.000162896 3.21579e-21)
(1.15198 -0.000200212 -6.25993e-23)
(1.15202 -0.000240583 -3.13402e-20)
(1.15206 -0.000284102 4.03643e-20)
(1.15209 -0.000330851 3.40339e-20)
(1.15213 -0.000380938 -1.53549e-20)
(1.15217 -0.000434504 -1.97412e-21)
(1.1522 -0.000491732 -1.4705e-20)
(1.15224 -0.000552862 1.71999e-20)
(1.15228 -0.000618186 8.35409e-21)
(1.15232 -0.000688054 -2.10437e-21)
(1.15236 -0.000762871 8.54625e-21)
(1.15241 -0.000843115 -8.1917e-21)
(1.15245 -0.000929333 -1.48328e-20)
(1.1525 -0.00102215 0)
(1.15256 -0.00112225 8.39053e-21)
(1.15262 -0.00123044 3.97148e-21)
(1.15268 -0.00134759 -7.55678e-22)
(1.15275 -0.00147466 8.01056e-22)
(1.15282 -0.00161272 0)
(1.1529 -0.00176296 3.18489e-21)
(1.15299 -0.00192668 -1.21798e-21)
(1.15308 -0.00210532 -6.65306e-22)
(1.15319 -0.00230044 7.70717e-22)
(1.1533 -0.00251376 2.43778e-22)
(1.15341 -0.00274718 -5.15665e-21)
(1.15354 -0.00300276 0)
(1.15368 -0.00328275 -4.64218e-21)
(1.15382 -0.00358961 6.91317e-22)
(1.15398 -0.00392598 1.03743e-21)
(1.15415 -0.00429475 -1.73508e-21)
(1.15432 -0.00469904 5.80613e-21)
(1.15451 -0.00514216 0)
(1.15471 -0.00562767 7.37941e-21)
(1.15492 -0.00615936 4.35141e-21)
(1.15514 -0.00674123 1.472e-21)
(1.15537 -0.00737754 5.5663e-21)
(1.1556 -0.00807263 0)
(1.15585 -0.00883123 0)
(1.1561 -0.00965803 0)
(1.15635 -0.0105582 3.62445e-22)
(1.15661 -0.0115367 8.73963e-23)
(1.15687 -0.0125989 -7.92567e-21)
(1.15714 -0.0137502 9.86425e-22)
(1.1574 -0.0149961 -1.0459e-21)
(1.15765 -0.0163422 0)
(1.1579 -0.017794 -1.31775e-21)
(1.15814 -0.0193574 6.78083e-22)
(1.15837 -0.0210378 7.62617e-22)
(1.15859 -0.0228413 8.45592e-22)
(1.15879 -0.024773 -8.17387e-21)
(1.15897 -0.0268387 -9.65866e-22)
(1.15912 -0.0290437 -3.56566e-21)
(1.15926 -0.0313931 -5.53447e-22)
(1.15937 -0.0338926 5.46633e-21)
(1.15946 -0.0365463 4.11519e-21)
(1.15952 -0.0393602 6.54403e-22)
(1.15955 -0.042338 6.77713e-22)
(1.15957 -0.0454864 -7.19172e-22)
(1.15957 -0.0488079 2.31516e-21)
(1.15955 -0.0523102 0)
(1.15953 -0.055996 -3.71636e-21)
(1.15951 -0.0598723 1.44894e-21)
(1.15951 -0.0639442 1.32635e-21)
(1.15954 -0.0682174 -2.33547e-21)
(1.15961 -0.0726981 -2.71438e-22)
(1.15974 -0.0773917 0)
(1.15996 -0.0823051 0)
(1.1603 -0.0874414 4.61777e-22)
(1.16077 -0.0928082 -2.07956e-21)
(1.16143 -0.0984023 -2.0292e-21)
(1.16231 -0.104231 -3.07651e-21)
(1.16344 -0.110286 -9.49031e-23)
(1.16489 -0.116565 5.11543e-21)
(1.16671 -0.123041 -5.9171e-21)
(1.16895 -0.129722 -4.75809e-21)
(1.17167 -0.136517 -5.03809e-21)
(1.17494 -0.143499 1.40905e-20)
(1.17882 -0.150388 9.60516e-21)
(1.18338 -0.157527 -1.31116e-20)
(1.18867 -0.164078 8.19506e-21)
(1.19468 -0.171236 -9.95653e-22)
(1.20162 -0.176711 0)
(1.20901 -0.18387 -1.24403e-20)
(1.21782 -0.187123 1.01933e-21)
(1.22608 -0.194621 -1.90105e-20)
(1.23709 -0.194009 0)
(1.24484 -0.20287 0)
(1.25901 -0.196345 0)
(1.26272 -0.208216 1.05752e-21)
(1.28497 -0.193779 -1.89532e-20)
(1.28773 -0.211932 2.0963e-20)
(1.35459 -0.214874 0)
(0.86649 -0.156751 -1.99641e-20)
(1.15165 -1.53603e-05 2.08595e-20)
(1.15173 -4.07416e-05 -9.21477e-20)
(1.15179 -7.0305e-05 -5.17299e-20)
(1.15184 -0.000100693 -1.78087e-20)
(1.15188 -0.000132731 -1.25442e-20)
(1.15192 -0.000167431 3.96305e-20)
(1.15196 -0.000204935 -1.36914e-20)
(1.152 -0.000245417 -2.16872e-20)
(1.15204 -0.000289027 4.42924e-21)
(1.15207 -0.00033589 -1.90832e-20)
(1.15211 -0.000386141 -1.61997e-20)
(1.15214 -0.000439955 0)
(1.15217 -0.000497532 1.66549e-20)
(1.15221 -0.000559129 -3.48351e-20)
(1.15225 -0.000625049 -1.82152e-20)
(1.15228 -0.000695646 4.87131e-21)
(1.15232 -0.000771338 4.68423e-21)
(1.15236 -0.000852612 0)
(1.15241 -0.000940016 6.59676e-21)
(1.15245 -0.00103417 2.34003e-21)
(1.1525 -0.00113579 -8.31983e-21)
(1.15256 -0.00124564 -8.42586e-21)
(1.15262 -0.00136461 -9.15549e-22)
(1.15268 -0.00149365 -2.99548e-21)
(1.15275 -0.00163384 3.22077e-21)
(1.15282 -0.00178636 1.35185e-21)
(1.1529 -0.00195249 1.27669e-21)
(1.15299 -0.00213367 1.02672e-22)
(1.15308 -0.00233143 5.64524e-22)
(1.15318 -0.0025475 -3.14471e-22)
(1.15328 -0.00278373 2.8095e-21)
(1.1534 -0.00304216 -1.34146e-21)
(1.15352 -0.00332499 3.60007e-21)
(1.15365 -0.00363465 0)
(1.15379 -0.00397372 2.42263e-21)
(1.15394 -0.00434504 0)
(1.1541 -0.00475162 -5.69264e-21)
(1.15427 -0.00519673 -4.11026e-21)
(1.15444 -0.00568379 -6.45598e-21)
(1.15463 -0.00621652 -8.62723e-21)
(1.15482 -0.00679882 1.18356e-21)
(1.15502 -0.00743479 -2.62243e-21)
(1.15522 -0.00812874 6.79251e-21)
(1.15543 -0.00888517 6.99824e-21)
(1.15565 -0.00970873 -1.95694e-21)
(1.15587 -0.0106044 -8.89696e-21)
(1.15609 -0.011577 1.20411e-21)
(1.15631 -0.0126319 6.18962e-21)
(1.15652 -0.0137743 4.57112e-21)
(1.15673 -0.0150096 8.25887e-22)
(1.15694 -0.0163431 -7.32868e-21)
(1.15714 -0.0177807 -2.46993e-21)
(1.15732 -0.0193278 1.09576e-21)
(1.15749 -0.0209901 -5.13222e-21)
(1.15765 -0.0227733 -6.26853e-22)
(1.15778 -0.0246828 6.64837e-22)
(1.1579 -0.0267246 -6.9834e-22)
(1.15799 -0.0289037 7.37508e-21)
(1.15805 -0.0312259 -7.73396e-22)
(1.15809 -0.0336968 2.42703e-21)
(1.1581 -0.036321 -3.68474e-21)
(1.15809 -0.0391048 -2.77266e-21)
(1.15805 -0.042053 2.25882e-21)
(1.15798 -0.0451717 0)
(1.1579 -0.048465 -2.69075e-21)
(1.15779 -0.0519415 4.16823e-22)
(1.15768 -0.0556035 0)
(1.15757 -0.0594612 1.85007e-21)
(1.15748 -0.0635184 -1.11956e-21)
(1.1574 -0.0677838 -2.0944e-22)
(1.15737 -0.0722627 0)
(1.15739 -0.0769655 -3.28898e-22)
(1.1575 -0.0818971 0)
(1.15772 -0.0870643 -7.40898e-22)
(1.15808 -0.0924754 1.57847e-21)
(1.15862 -0.0981321 2.01567e-21)
(1.15937 -0.104041 2.61292e-21)
(1.16038 -0.110196 0)
(1.1617 -0.116599 -1.49787e-21)
(1.16339 -0.123227 9.2715e-22)
(1.16552 -0.130085 7.643e-22)
(1.16814 -0.137093 5.6446e-21)
(1.17133 -0.14431 -6.33189e-21)
(1.17514 -0.151482 -9.21111e-21)
(1.17968 -0.158909 0)
(1.18498 -0.165813 -8.85041e-22)
(1.19105 -0.173296 9.31347e-22)
(1.1981 -0.179156 -9.64837e-21)
(1.20568 -0.186671 1.0951e-20)
(1.21472 -0.190254 1.61906e-20)
(1.22329 -0.198153 1.81408e-20)
(1.23471 -0.197652 -1.40232e-21)
(1.24274 -0.206995 1.46018e-21)
(1.25771 -0.20022 1.39554e-20)
(1.26127 -0.212643 1.06138e-21)
(1.28495 -0.197785 3.46761e-20)
(1.28247 -0.215212 2.11147e-20)
(1.35659 -0.216492 1.34898e-21)
(0.883806 -0.161817 1.51629e-20)
(1.15164 -1.57858e-05 0)
(1.15172 -4.23735e-05 4.33212e-20)
(1.15178 -7.27188e-05 9.7755e-20)
(1.15182 -0.000103863 -6.07333e-21)
(1.15187 -0.000136402 0)
(1.15191 -0.000171401 -5.3141e-20)
(1.15195 -0.000209088 0)
(1.15198 -0.000249674 2.86674e-20)
(1.15201 -0.000293359 -2.98449e-20)
(1.15205 -0.000340306 3.88774e-21)
(1.15208 -0.000390678 1.19563e-20)
(1.15211 -0.000444673 0)
(1.15214 -0.000502519 0)
(1.15218 -0.000564483 1.7646e-20)
(1.15221 -0.000630877 2.03456e-20)
(1.15225 -0.000702078 -1.16255e-20)
(1.15228 -0.000778502 0)
(1.15232 -0.000860637 2.37249e-21)
(1.15236 -0.000949037 -4.89214e-21)
(1.1524 -0.00104433 2.51993e-21)
(1.15245 -0.00114722 -1.0151e-20)
(1.1525 -0.00125848 4.45459e-21)
(1.15255 -0.00137899 1.07422e-21)
(1.15261 -0.00150971 -1.86985e-21)
(1.15267 -0.0016517 8.457e-22)
(1.15274 -0.00180613 -3.03323e-21)
(1.15281 -0.00197428 3.53156e-21)
(1.15289 -0.00215756 0)
(1.15297 -0.00235751 0)
(1.15306 -0.00257582 2.21726e-22)
(1.15315 -0.00281432 -1.01235e-21)
(1.15326 -0.00307501 1.98092e-21)
(1.15337 -0.00336007 4.78538e-22)
(1.15348 -0.00367186 -7.13596e-22)
(1.15361 -0.00401293 -1.97105e-21)
(1.15374 -0.00438603 -7.06431e-22)
(1.15388 -0.0047941 7.4888e-22)
(1.15402 -0.00524034 4.71444e-21)
(1.15418 -0.0057281 6.50554e-22)
(1.15434 -0.00626096 2.68202e-21)
(1.1545 -0.00684276 9.03418e-22)
(1.15467 -0.00747745 -9.57774e-22)
(1.15485 -0.00816922 -1.35948e-21)
(1.15503 -0.00892249 -6.06144e-21)
(1.15521 -0.00974181 7.70843e-22)
(1.15539 -0.0106319 3.0546e-21)
(1.15557 -0.0115977 -9.5839e-22)
(1.15574 -0.0126442 -4.04594e-23)
(1.15592 -0.0137766 -4.19281e-21)
(1.15608 -0.0150002 0)
(1.15624 -0.0163204 1.92989e-21)
(1.15638 -0.0177426 -1.24768e-21)
(1.15652 -0.0192725 -2.45417e-21)
(1.15663 -0.0209155 3.943e-21)
(1.15673 -0.0226776 0)
(1.1568 -0.0245639 0)
(1.15685 -0.026581 4.29498e-22)
(1.15687 -0.0287333 -2.80661e-21)
(1.15687 -0.0310275 0)
(1.15684 -0.0334686 -2.41107e-21)
(1.15678 -0.0360625 9.4125e-22)
(1.15668 -0.0388155 1.64273e-21)
(1.15656 -0.0417325 -2.24425e-21)
(1.15642 -0.0448205 2.00316e-22)
(1.15625 -0.0480844 0)
(1.15606 -0.0515328 0)
(1.15586 -0.0551705 8.44766e-22)
(1.15565 -0.0590064 7.18378e-22)
(1.15546 -0.0630466 1.97554e-23)
(1.15528 -0.0673012 -7.07438e-23)
(1.15514 -0.071777 -9.26082e-23)
(1.15506 -0.0764839 1.47778e-21)
(1.15505 -0.081431 -1.07075e-21)
(1.15515 -0.0866253 -3.01959e-22)
(1.15538 -0.0920785 -8.1647e-22)
(1.15579 -0.0977919 3.94334e-22)
(1.1564 -0.103777 1.29721e-22)
(1.15728 -0.110031 -3.55509e-22)
(1.15847 -0.116555 -3.07828e-21)
(1.16002 -0.123334 5.0771e-21)
(1.16202 -0.130368 -5.37065e-22)
(1.16452 -0.13759 -3.00092e-21)
(1.1676 -0.145047 4.31124e-21)
(1.17134 -0.15251 0)
(1.17582 -0.160235 0)
(1.18111 -0.167515 0)
(1.18724 -0.175328 1.42107e-20)
(1.19437 -0.18163 1.10442e-20)
(1.20215 -0.189489 -1.44796e-20)
(1.21141 -0.193486 -1.29725e-20)
(1.2203 -0.201741 1.73107e-20)
(1.23214 -0.201476 2.03588e-20)
(1.2405 -0.211215 2.46332e-20)
(1.25626 -0.204319 -2.89178e-20)
(1.25975 -0.217149 9.76876e-22)
(1.285 -0.201967 -3.58959e-20)
(1.27777 -0.21871 -4.10536e-20)
(1.35825 -0.218135 -2.65763e-21)
(0.898924 -0.166588 4.19592e-21)
(1.15164 -1.61229e-05 -2.16558e-20)
(1.15171 -4.37443e-05 -8.1826e-23)
(1.15177 -7.47507e-05 -5.11936e-21)
(1.15181 -0.000106551 -4.93482e-20)
(1.15185 -0.000139551 -5.82389e-20)
(1.15189 -0.00017483 -5.21582e-22)
(1.15193 -0.000212684 0)
(1.15196 -0.00025336 0)
(1.15199 -0.000297095 0)
(1.15202 -0.00034409 3.97313e-21)
(1.15206 -0.000394538 -4.21206e-21)
(1.15209 -0.000448658 -4.28804e-21)
(1.15212 -0.00050669 4.54565e-21)
(1.15215 -0.000568927 1.89616e-20)
(1.15218 -0.000635691 2.19565e-20)
(1.15221 -0.00070736 1.76918e-20)
(1.15224 -0.000784362 0)
(1.15228 -0.000867192 2.51816e-21)
(1.15232 -0.000956405 -2.66934e-21)
(1.15235 -0.00105263 1.09506e-20)