/*--------------------------------*- C++ -*----------------------------------*\
  =========                 |
  \\      /  F ield         | OpenFOAM: The Open Source CFD Toolbox
   \\    /   O peration     | Website:  https://openfoam.org
    \\  /    A nd           | Version:  9
     \\/     M anipulation  |
\*---------------------------------------------------------------------------*/
FoamFile
{
    format      ascii;
    class       volScalarField;
    location    "2250";
    object      gammaInt;
}
// * * * * * * * * * * * * * * * * * * * * * * * * * * * * * * * * * * * * * //

dimensions      [0 0 0 0 0 0 0];

internalField   nonuniform List<scalar> 
13538
(
0.997186
0.996319
0.996226
0.996238
0.996257
0.996272
0.996287
0.996306
0.996325
0.996336
0.996339
0.99634
0.99634
0.996342
0.996344
0.996346
0.996347
0.996346
0.996343
0.996339
0.996334
0.996328
0.996322
0.996316
0.996311
0.996306
0.996302
0.996297
0.996292
0.996286
0.996281
0.996277
0.996275
0.996275
0.996278
0.996284
0.996295
0.99631
0.996329
0.996354
0.996385
0.996422
0.996464
0.996514
0.99657
0.996634
0.996685
0.996741
0.996796
0.996858
0.996924
0.996998
0.997078
0.997157
0.997226
0.997276
0.997302
0.9973
0.997264
0.997199
0.997117
0.997017
0.996911
0.996796
0.996677
0.996553
0.996424
0.996279
0.996131
0.995971
0.995806
0.995633
0.99545
0.995251
0.995065
0.994885
0.994687
0.994503
0.994326
0.99414
0.993973
0.993824
0.993762
0.993642
0.993672
0.993567
0.99376
0.993401
0.993433
0.991266
0.988466
0.980731
0.966447
0.936257
0.859782
0.685955
0.41892
0.098769
0.0170563
0.997659
0.996626
0.996442
0.996409
0.996401
0.996397
0.996396
0.996403
0.996412
0.996416
0.996413
0.996408
0.996403
0.9964
0.996399
0.996397
0.996395
0.996391
0.996386
0.99638
0.996373
0.996366
0.996359
0.996352
0.996346
0.99634
0.996335
0.99633
0.996325
0.996319
0.996314
0.99631
0.996307
0.996306
0.996308
0.996312
0.99632
0.996331
0.996345
0.996364
0.996387
0.996415
0.996448
0.996486
0.996529
0.996579
0.996634
0.996698
0.996771
0.996851
0.996939
0.997034
0.997133
0.997234
0.997324
0.997396
0.997446
0.997466
0.997452
0.997406
0.997339
0.997255
0.997164
0.997063
0.996957
0.996847
0.996733
0.996605
0.996475
0.996336
0.996196
0.996047
0.995892
0.995725
0.995565
0.995422
0.995259
0.995108
0.994959
0.994793
0.994649
0.994491
0.994439
0.994271
0.994314
0.994085
0.994313
0.993699
0.994038
0.991536
0.989492
0.982053
0.969115
0.94131
0.87844
0.722509
0.453254
0.114577
0.0185901
0.998033
0.996928
0.996661
0.996581
0.996547
0.996524
0.996509
0.996505
0.996506
0.996502
0.996494
0.996484
0.996475
0.996468
0.996463
0.996458
0.996452
0.996446
0.996438
0.99643
0.996421
0.996411
0.996401
0.996392
0.996384
0.996376
0.996369
0.996361
0.996354
0.996346
0.996338
0.996331
0.996325
0.996321
0.99632
0.996321
0.996326
0.996335
0.996347
0.996363
0.996384
0.99641
0.996441
0.996478
0.99652
0.99657
0.996625
0.996688
0.996758
0.996835
0.996917
0.997006
0.997098
0.997194
0.997287
0.997366
0.997426
0.997456
0.99745
0.99741
0.997348
0.997267
0.997177
0.997076
0.99697
0.996859
0.996742
0.996613
0.99648
0.996339
0.996197
0.996044
0.995887
0.995716
0.995551
0.995403
0.995239
0.995084
0.994929
0.994757
0.994605
0.99444
0.994383
0.994205
0.994245
0.994028
0.994238
0.993623
0.994074
0.991651
0.989988
0.982802
0.970767
0.94296
0.886395
0.74507
0.475574
0.125428
0.0197989
0.998336
0.997211
0.996876
0.996752
0.996691
0.99665
0.996621
0.996606
0.996597
0.996586
0.996572
0.996557
0.996543
0.996532
0.996523
0.996514
0.996505
0.996496
0.996485
0.996474
0.996463
0.996451
0.99644
0.996429
0.996419
0.996409
0.9964
0.996392
0.996383
0.996374
0.996365
0.996357
0.996351
0.996346
0.996344
0.996345
0.996348
0.996355
0.996366
0.996381
0.9964
0.996423
0.996451
0.996484
0.996522
0.996567
0.996618
0.996675
0.996739
0.99681
0.996887
0.99697
0.997058
0.99715
0.997244
0.99733
0.9974
0.997441
0.997448
0.997424
0.997373
0.997303
0.99722
0.997127
0.997026
0.99692
0.996807
0.996682
0.996551
0.996414
0.996274
0.996125
0.995971
0.995802
0.99564
0.995492
0.995334
0.99518
0.995024
0.99485
0.994694
0.99452
0.994468
0.994259
0.994329
0.994028
0.99437
0.993497
0.994294
0.99164
0.990527
0.983397
0.972391
0.944963
0.893883
0.766046
0.499517
0.137145
0.021074
0.998582
0.997472
0.997084
0.99692
0.996834
0.996775
0.996733
0.996707
0.996689
0.996671
0.996651
0.996631
0.996612
0.996597
0.996585
0.996573
0.99656
0.996548
0.996535
0.996521
0.996508
0.996494
0.99648
0.996467
0.996455
0.996444
0.996434
0.996423
0.996413
0.996402
0.996391
0.996382
0.996373
0.996367
0.996363
0.996362
0.996363
0.996368
0.996376
0.996388
0.996405
0.996425
0.99645
0.99648
0.996515
0.996556
0.996603
0.996657
0.996717
0.996785
0.996859
0.996939
0.997023
0.997111
0.997203
0.997292
0.997367
0.997418
0.997436
0.997419
0.997376
0.997311
0.997232
0.99714
0.997041
0.996936
0.996823
0.996698
0.996565
0.996427
0.996286
0.996137
0.995981
0.995811
0.995645
0.995495
0.995339
0.995183
0.995021
0.994844
0.994684
0.994503
0.994448
0.994222
0.994308
0.993964
0.994399
0.99338
0.994391
0.991597
0.990922
0.983791
0.973705
0.946569
0.899054
0.782636
0.52218
0.148703
0.0223132
0.998783
0.997709
0.997282
0.997084
0.996974
0.996898
0.996844
0.996807
0.99678
0.996755
0.996729
0.996704
0.996681
0.996662
0.996645
0.99663
0.996615
0.996599
0.996584
0.996568
0.996552
0.996536
0.99652
0.996505
0.996492
0.996479
0.996466
0.996454
0.996442
0.99643
0.996418
0.996407
0.996397
0.996389
0.996383
0.99638
0.99638
0.996384
0.99639
0.9964
0.996414
0.996432
0.996454
0.996481
0.996513
0.996551
0.996595
0.996644
0.996701
0.996764
0.996834
0.99691
0.996991
0.997075
0.997164
0.997253
0.997333
0.997392
0.997421
0.997415
0.99738
0.997322
0.997247
0.99716
0.997066
0.996965
0.996854
0.996731
0.996599
0.996462
0.996321
0.996172
0.996016
0.995846
0.995678
0.995529
0.995371
0.995217
0.995051
0.994872
0.994707
0.994524
0.994462
0.994231
0.994313
0.99394
0.994442
0.993299
0.994444
0.991506
0.991201
0.984017
0.974729
0.948101
0.903428
0.795603
0.543652
0.160282
0.0235808
0.998948
0.997922
0.997469
0.997243
0.99711
0.99702
0.996954
0.996907
0.996871
0.996839
0.996808
0.996777
0.99675
0.996727
0.996706
0.996687
0.996669
0.996651
0.996633
0.996614
0.996596
0.996578
0.996561
0.996544
0.996528
0.996513
0.996499
0.996485
0.996472
0.996458
0.996444
0.996431
0.99642
0.996411
0.996404
0.996399
0.996397
0.996399
0.996403
0.996411
0.996423
0.996438
0.996458
0.996482
0.996511
0.996546
0.996586
0.996632
0.996684
0.996744
0.99681
0.996883
0.996961
0.997041
0.997126
0.997214
0.997298
0.997363
0.9974
0.997406
0.997379
0.997328
0.997259
0.997176
0.997085
0.996988
0.996879
0.996757
0.996626
0.996488
0.99635
0.996199
0.996042
0.995871
0.995703
0.995553
0.995394
0.995239
0.99507
0.994888
0.994717
0.994534
0.99446
0.994237
0.994295
0.993926
0.994435
0.993265
0.994415
0.991439
0.991346
0.984165
0.975529
0.949595
0.907072
0.805092
0.564907
0.171777
0.0248205
0.999084
0.998114
0.997645
0.997395
0.997244
0.997139
0.997062
0.997006
0.996961
0.996922
0.996885
0.99685
0.996818
0.996791
0.996766
0.996744
0.996723
0.996702
0.996682
0.996661
0.996641
0.996621
0.996601
0.996583
0.996565
0.996548
0.996532
0.996517
0.996501
0.996486
0.996471
0.996456
0.996443
0.996432
0.996424
0.996418
0.996414
0.996414
0.996416
0.996422
0.996432
0.996445
0.996462
0.996483
0.99651
0.996542
0.996578
0.996621
0.99667
0.996726
0.996788
0.996857
0.996932
0.99701
0.997091
0.997177
0.997262
0.997332
0.997377
0.997392
0.997375
0.997332
0.997268
0.99719
0.997102
0.997009
0.996904
0.996783
0.996653
0.996516
0.996378
0.996228
0.996071
0.995898
0.99573
0.995579
0.995421
0.995264
0.995092
0.994905
0.994731
0.994551
0.99446
0.994251
0.994275
0.993933
0.994395
0.993292
0.994339
0.991451
0.991449
0.984428
0.976384
0.951106
0.910539
0.811604
0.584908
0.183146
0.0261029
0.999198
0.998285
0.997809
0.99754
0.997372
0.997256
0.99717
0.997104
0.997051
0.997005
0.996962
0.996922
0.996885
0.996854
0.996826
0.996801
0.996777
0.996753
0.99673
0.996708
0.996685
0.996663
0.996642
0.996621
0.996602
0.996583
0.996566
0.996548
0.996531
0.996514
0.996497
0.996481
0.996467
0.996454
0.996444
0.996436
0.996431
0.996429
0.99643
0.996434
0.996441
0.996452
0.996467
0.996486
0.996509
0.996538
0.996572
0.996611
0.996657
0.996709
0.996768
0.996834
0.996905
0.99698
0.997058
0.997141
0.997226
0.9973
0.997352
0.997374
0.997367
0.997333
0.997276
0.997202
0.997118
0.997027
0.996925
0.996808
0.996679
0.996544
0.996405
0.996256
0.996099
0.995925
0.995755
0.995604
0.995447
0.995288
0.995112
0.994924
0.994744
0.994567
0.994463
0.994265
0.994257
0.993954
0.994341
0.993369
0.994303
0.991553
0.99162
0.98479
0.97729
0.952655
0.91395
0.815814
0.604137
0.194625
0.0273067
0.999293
0.998437
0.997962
0.997679
0.997497
0.99737
0.997276
0.997201
0.99714
0.997087
0.997038
0.996993
0.996952
0.996916
0.996885
0.996857
0.99683
0.996804
0.996779
0.996754
0.99673
0.996706
0.996683
0.99666
0.996639
0.996619
0.996599
0.99658
0.996561
0.996542
0.996524
0.996506
0.99649
0.996476
0.996464
0.996455
0.996448
0.996444
0.996443
0.996445
0.996451
0.996459
0.996472
0.996488
0.996509
0.996535
0.996566
0.996603
0.996645
0.996694
0.996749
0.996812
0.99688
0.996952
0.997028
0.997107
0.99719
0.997266
0.997324
0.997354
0.997355
0.99733
0.99728
0.997212
0.997132
0.997045
0.996944
0.996831
0.996705
0.996571
0.996433
0.996284
0.996126
0.995952
0.995783
0.995631
0.995472
0.995313
0.995132
0.994945
0.994759
0.994584
0.99447
0.99428
0.994242
0.993977
0.994298
0.993459
0.994299
0.99174
0.991831
0.985281
0.978243
0.954294
0.917433
0.819781
0.62219
0.206084
0.0285657
0.999373
0.998572
0.998103
0.997811
0.997618
0.997483
0.99738
0.997297
0.997227
0.997167
0.997112
0.997062
0.997017
0.996977
0.996943
0.996912
0.996883
0.996855
0.996827
0.9968
0.996774
0.996748
0.996723
0.996699
0.996676
0.996654
0.996633
0.996612
0.996591
0.99657
0.99655
0.996531
0.996514
0.996498
0.996485
0.996474
0.996466
0.99646
0.996457
0.996457
0.996461
0.996467
0.996477
0.996491
0.99651
0.996534
0.996561
0.996595
0.996634
0.99668
0.996732
0.996791
0.996855
0.996925
0.996998
0.997075
0.997156
0.997232
0.997294
0.997331
0.997341
0.997323
0.997281
0.997221
0.997146
0.997061
0.996962
0.996851
0.996729
0.996598
0.996461
0.996312
0.996154
0.995979
0.995811
0.995659
0.995499
0.995339
0.995152
0.994964
0.994775
0.994603
0.99448
0.994291
0.994237
0.993995
0.994261
0.99354
0.99431
0.991989
0.992095
0.985892
0.979269
0.956111
0.92103
0.824151
0.63984
0.217495
0.0298345
0.999441
0.998693
0.998233
0.997936
0.997736
0.997594
0.997483
0.99739
0.997312
0.997245
0.997185
0.997129
0.99708
0.997038
0.997001
0.996967
0.996936
0.996905
0.996875
0.996846
0.996818
0.996791
0.996764
0.996738
0.996713
0.996689
0.996666
0.996644
0.996621
0.996599
0.996577
0.996557
0.996538
0.996521
0.996506
0.996493
0.996483
0.996476
0.996471
0.99647
0.996471
0.996475
0.996483
0.996495
0.996511
0.996532
0.996557
0.996588
0.996624
0.996667
0.996716
0.996771
0.996833
0.996899
0.99697
0.997044
0.997123
0.997199
0.997264
0.997306
0.997324
0.997313
0.99728
0.997226
0.997158
0.997075
0.996979
0.99687
0.996751
0.996623
0.996489
0.996341
0.996183
0.996006
0.995841
0.995687
0.995527
0.995362
0.995175
0.994984
0.994794
0.994622
0.994493
0.994307
0.994234
0.994015
0.994223
0.993604
0.994322
0.99224
0.992376
0.986604
0.980382
0.958073
0.924696
0.829018
0.656693
0.228884
0.0310725
0.999499
0.9988
0.998352
0.998055
0.99785
0.997701
0.997581
0.997481
0.997395
0.997322
0.997255
0.997195
0.997142
0.997097
0.997057
0.997022
0.996988
0.996955
0.996923
0.996892
0.996862
0.996833
0.996804
0.996777
0.99675
0.996725
0.9967
0.996675
0.996651
0.996627
0.996604
0.996582
0.996562
0.996543
0.996527
0.996513
0.996501
0.996492
0.996486
0.996482
0.996482
0.996484
0.99649
0.996499
0.996513
0.996531
0.996554
0.996582
0.996615
0.996654
0.9967
0.996753
0.996811
0.996875
0.996943
0.997015
0.997091
0.997166
0.997232
0.99728
0.997304
0.997302
0.997275
0.997229
0.997167
0.99709
0.996996
0.996888
0.996771
0.996648
0.996515
0.99637
0.996211
0.996037
0.995872
0.995716
0.995557
0.995387
0.995197
0.995006
0.994816
0.994645
0.994509
0.994327
0.994237
0.994033
0.994194
0.993657
0.994331
0.99246
0.992638
0.987352
0.981543
0.960192
0.928457
0.834455
0.672615
0.240426
0.0323786
0.999549
0.998896
0.998462
0.998165
0.997957
0.997803
0.997676
0.997568
0.997476
0.997395
0.997323
0.997258
0.997202
0.997155
0.997114
0.997076
0.997039
0.997004
0.99697
0.996937
0.996906
0.996875
0.996844
0.996815
0.996787
0.99676
0.996734
0.996707
0.996682
0.996656
0.996631
0.996608
0.996586
0.996566
0.996548
0.996532
0.996519
0.996508
0.9965
0.996495
0.996492
0.996493
0.996496
0.996504
0.996515
0.996531
0.996551
0.996576
0.996607
0.996643
0.996686
0.996735
0.996791
0.996851
0.996918
0.996987
0.997061
0.997134
0.997201
0.997252
0.997282
0.997287
0.997268
0.99723
0.997174
0.997101
0.997012
0.996906
0.996791
0.996672
0.996542
0.996399
0.996239
0.996067
0.995904
0.995749
0.995585
0.995416
0.995221
0.995029
0.99484
0.994671
0.994526
0.994344
0.994249
0.994056
0.994175
0.993702
0.994331
0.992659
0.992858
0.988039
0.982689
0.962457
0.932368
0.840287
0.687875
0.252094
0.0336303
0.999592
0.998982
0.998561
0.998267
0.998058
0.997901
0.997768
0.997653
0.997553
0.997466
0.997388
0.99732
0.997262
0.997213
0.997169
0.997129
0.99709
0.997053
0.997017
0.996982
0.996949
0.996916
0.996885
0.996854
0.996824
0.996796
0.996767
0.99674
0.996712
0.996685
0.996659
0.996633
0.99661
0.996589
0.996569
0.996552
0.996537
0.996525
0.996515
0.996508
0.996503
0.996502
0.996503
0.996509
0.996518
0.996531
0.996549
0.996571
0.996599
0.996633
0.996673
0.996719
0.996771
0.996829
0.996893
0.99696
0.997032
0.997103
0.99717
0.997224
0.997259
0.997271
0.997259
0.997227
0.997178
0.997112
0.997026
0.996924
0.996812
0.996694
0.996567
0.996427
0.996271
0.996099
0.995939
0.995783
0.995616
0.995443
0.995247
0.995055
0.994865
0.994701
0.994548
0.994369
0.994257
0.994083
0.994164
0.993745
0.994326
0.992843
0.993047
0.988641
0.98373
0.964755
0.936254
0.846656
0.702653
0.263707
0.0349048
0.999629
0.999059
0.998651
0.998362
0.998155
0.997995
0.997856
0.997734
0.997627
0.997533
0.997451
0.99738
0.997321
0.99727
0.997225
0.997182
0.99714
0.997101
0.997063
0.997027
0.996991
0.996957
0.996924
0.996892
0.996861
0.996831
0.996801
0.996772
0.996742
0.996714
0.996686
0.996659
0.996635
0.996612
0.996591
0.996572
0.996556
0.996542
0.99653
0.996521
0.996515
0.996511
0.996511
0.996514
0.996521
0.996532
0.996547
0.996567
0.996592
0.996623
0.99666
0.996703
0.996752
0.996808
0.996869
0.996934
0.997003
0.997073
0.997139
0.997195
0.997234
0.997253
0.997248
0.997223
0.997179
0.997119
0.997038
0.996941
0.996833
0.996717
0.996592
0.996454
0.9963
0.996133
0.995973
0.995818
0.99565
0.99547
0.995278
0.995087
0.994894
0.994732
0.994575
0.994395
0.994277
0.994108
0.994164
0.993788
0.994321
0.993018
0.993209
0.98919
0.984675
0.966918
0.940145
0.853488
0.716839
0.275407
0.0362693
0.999661
0.999128
0.998733
0.998452
0.998249
0.998086
0.99794
0.99781
0.997696
0.997597
0.997512
0.99744
0.997379
0.997327
0.997279
0.997233
0.99719
0.997148
0.997109
0.99707
0.997034
0.996998
0.996964
0.99693
0.996898
0.996866
0.996835
0.996804
0.996773
0.996743
0.996713
0.996685
0.996659
0.996635
0.996612
0.996592
0.996574
0.996559
0.996545
0.996535
0.996526
0.996521
0.996519
0.99652
0.996525
0.996533
0.996546
0.996564
0.996586
0.996615
0.996648
0.996688
0.996734
0.996787
0.996846
0.996909
0.996976
0.997044
0.997109
0.997166
0.997209
0.997232
0.997235
0.997216
0.997179
0.997124
0.997049
0.996956
0.996852
0.996739
0.996615
0.996481
0.99633
0.996169
0.99601
0.995854
0.995682
0.9955
0.995309
0.995117
0.994929
0.994764
0.9946
0.994424
0.994298
0.994139
0.99417
0.993832
0.994311
0.993177
0.993355
0.989689
0.985533
0.968899
0.943947
0.860534
0.730424
0.287653
0.0375458
0.99969
0.99919
0.99881
0.998533
0.998339
0.99817
0.998017
0.997882
0.997762
0.997659
0.997572
0.9975
0.997438
0.997384
0.997333
0.997284
0.997238
0.997195
0.997153
0.997114
0.997076
0.997039
0.997003
0.996968
0.996934
0.996901
0.996868
0.996835
0.996803
0.996771
0.996741
0.996712
0.996684
0.996658
0.996634
0.996613
0.996593
0.996576
0.996561
0.996548
0.996538
0.996531
0.996527
0.996526
0.996529
0.996535
0.996545
0.99656
0.996581
0.996606
0.996637
0.996674
0.996717
0.996767
0.996823
0.996884
0.99695
0.997015
0.997079
0.997136
0.997182
0.99721
0.997219
0.997207
0.997177
0.997126
0.997057
0.996971
0.996871
0.996761
0.996641
0.996507
0.996361
0.996204
0.996047
0.995889
0.995717
0.995533
0.995346
0.995152
0.994972
0.994802
0.994634
0.994459
0.994322
0.994174
0.994181
0.99388
0.9943
0.993308
0.993491
0.990148
0.986313
0.970795
0.947438
0.867828
0.743656
0.299622
0.0389473
0.999714
0.999245
0.998882
0.998612
0.998426
0.998249
0.99809
0.997949
0.997825
0.99772
0.997633
0.99756
0.997497
0.997439
0.997385
0.997334
0.997286
0.997241
0.997198
0.997156
0.997117
0.997079
0.997042
0.997006
0.99697
0.996936
0.996901
0.996867
0.996833
0.9968
0.996768
0.996738
0.996709
0.996682
0.996656
0.996633
0.996612
0.996593
0.996577
0.996563
0.996551
0.996541
0.996535
0.996532
0.996533
0.996537
0.996545
0.996558
0.996576
0.996598
0.996626
0.99666
0.996701
0.996748
0.996801
0.99686
0.996924
0.996987
0.99705
0.997107
0.997155
0.997188
0.997201
0.997196
0.997172
0.997127
0.997063
0.996983
0.996888
0.996783
0.996664
0.996534
0.996391
0.996239
0.996086
0.995926
0.995751
0.99557
0.995383
0.995194
0.995012
0.994841
0.994671
0.994495
0.994354
0.994213
0.994197
0.993932
0.994298
0.993429
0.99362
0.990576
0.987048
0.972547
0.950866
0.874897
0.75642
0.312339
0.0402832
0.999736
0.999294
0.99895
0.998683
0.998514
0.998324
0.998159
0.998012
0.997886
0.997781
0.997694
0.99762
0.997554
0.997493
0.997436
0.997383
0.997333
0.997285
0.997241
0.997199
0.997158
0.997118
0.99708
0.997043
0.997006
0.99697
0.996934
0.996899
0.996863
0.996829
0.996796
0.996764
0.996734
0.996705
0.996679
0.996654
0.996631
0.996611
0.996593
0.996577
0.996563
0.996552
0.996544
0.996539
0.996537
0.996539
0.996545
0.996556
0.996571
0.996591
0.996616
0.996647
0.996685
0.996729
0.99678
0.996837
0.996898
0.99696
0.997021
0.997078
0.997128
0.997164
0.997183
0.997183
0.997166
0.997127
0.997067
0.996992
0.996904
0.996803
0.996689
0.996563
0.996422
0.996272
0.99612
0.995961
0.995789
0.995612
0.995425
0.995241
0.995059
0.994886
0.994715
0.994532
0.994397
0.994255
0.994221
0.993989
0.994301
0.993538
0.993756
0.990982
0.987725
0.974221
0.954103
0.881886
0.768874
0.325114
0.0417795
0.999755
0.99934
0.999012
0.998751
0.99862
0.998392
0.998221
0.998072
0.997946
0.997842
0.997755
0.997679
0.997609
0.997545
0.997485
0.99743
0.997378
0.99733
0.997284
0.99724
0.997198
0.997158
0.997118
0.997079
0.997041
0.997004
0.996967
0.99693
0.996893
0.996858
0.996823
0.99679
0.996758
0.996729
0.996701
0.996675
0.996651
0.996629
0.996609
0.996591
0.996576
0.996563
0.996553
0.996546
0.996542
0.996542
0.996546
0.996554
0.996567
0.996584
0.996607
0.996635
0.996669
0.996711
0.99676
0.996814
0.996873
0.996932
0.996992
0.997049
0.997101
0.997139
0.997163
0.997167
0.997156
0.997123
0.99707
0.996999
0.996918
0.996822
0.996713
0.996591
0.996455
0.996305
0.996154
0.995995
0.995827
0.995652
0.995474
0.995289
0.995109
0.994932
0.994763
0.994576
0.99444
0.994305
0.994251
0.99405
0.994315
0.993646
0.993882
0.99137
0.988364
0.975806
0.957252
0.888558
0.781415
0.338137
0.0433021
0.999381
0.999069
0.998819
0.998616
0.998439
0.998274
0.998129
0.998007
0.997904
0.997815
0.997735
0.997662
0.997595
0.997534
0.997476
0.997423
0.997373
0.997326
0.997281
0.997238
0.997196
0.997155
0.997115
0.997076
0.997037
0.996999
0.99696
0.996923
0.996886
0.99685
0.996816
0.996783
0.996752
0.996723
0.996695
0.99667
0.996647
0.996625
0.996606
0.996588
0.996574
0.996563
0.996554
0.996547
0.996545
0.996547
0.996553
0.996563
0.996578
0.996597
0.996623
0.996655
0.996694
0.99674
0.996791
0.996847
0.996905
0.996964
0.99702
0.997073
0.997115
0.997142
0.997151
0.997145
0.997117
0.99707
0.997006
0.996928
0.996839
0.996738
0.99662
0.996487
0.996338
0.996184
0.99603
0.995869
0.995699
0.995525
0.995339
0.995162
0.994984
0.994809
0.99463
0.994492
0.994356
0.994296
0.994111
0.994336
0.993747
0.994001
0.991739
0.988972
0.977344
0.960229
0.895272
0.793489
0.351526
0.0449089
0.999122
0.998882
0.998679
0.998495
0.998328
0.998187
0.998068
0.997964
0.997871
0.997788
0.997713
0.997644
0.997581
0.997522
0.997467
0.997416
0.997367
0.997321
0.997277
0.997234
0.997192
0.997151
0.99711
0.99707
0.99703
0.996991
0.996952
0.996914
0.996877
0.996841
0.996807
0.996775
0.996745
0.996716
0.996689
0.996665
0.996642
0.99662
0.996602
0.996586
0.996572
0.996561
0.996553
0.996548
0.996548
0.996552
0.99656
0.996572
0.996589
0.996611
0.99664
0.996677
0.99672
0.996769
0.996822
0.996878
0.996935
0.996992
0.997046
0.99709
0.997119
0.997133
0.997132
0.997111
0.997068
0.99701
0.996939
0.996855
0.99676
0.99665
0.996518
0.996367
0.996213
0.996065
0.995913
0.99575
0.995579
0.995399
0.99522
0.995045
0.994866
0.994682
0.994551
0.994409
0.994347
0.994182
0.994366
0.99385
0.994106
0.992096
0.989568
0.978823
0.963152
0.901838
0.805448
0.365083
0.0466578
0.998548
0.998384
0.998249
0.998128
0.99802
0.997925
0.99784
0.997763
0.997692
0.997627
0.997567
0.997511
0.997458
0.997408
0.997361
0.997315
0.997271
0.997228
0.997185
0.997143
0.997102
0.997061
0.99702
0.99698
0.996941
0.996903
0.996867
0.996832
0.996799
0.996767
0.996737
0.996709
0.996683
0.996658
0.996635
0.996615
0.996597
0.996582
0.996569
0.996559
0.996552
0.99655
0.996551
0.996557
0.996566
0.99658
0.9966
0.996627
0.99666
0.996701
0.996747
0.996798
0.996851
0.996907
0.996964
0.997019
0.997065
0.997096
0.997114
0.997117
0.997101
0.997063
0.997012
0.996947
0.996871
0.996782
0.996677
0.996548
0.996394
0.996243
0.996104
0.99596
0.995807
0.995636
0.99546
0.995279
0.995106
0.994929
0.994747
0.994619
0.994474
0.994404
0.994251
0.994407
0.993955
0.994219
0.992452
0.990132
0.980218
0.966033
0.908305
0.817249
0.379273
0.0485193
0.998441
0.99831
0.998184
0.998074
0.997977
0.99789
0.997812
0.99774
0.997673
0.997611
0.997553
0.997499
0.997448
0.9974
0.997353
0.997307
0.997263
0.997219
0.997176
0.997133
0.997091
0.997049
0.997008
0.996968
0.996929
0.996892
0.996856
0.996821
0.996789
0.996758
0.996729
0.996701
0.996675
0.996651
0.996629
0.996609
0.996592
0.996577
0.996565
0.996556
0.996552
0.996551
0.996554
0.99656
0.996572
0.99659
0.996614
0.996644
0.996682
0.996725
0.996773
0.996824
0.996878
0.996937
0.996993
0.99704
0.997073
0.997093
0.997102
0.99709
0.997058
0.997012
0.996955
0.996885
0.996802
0.996703
0.996573
0.996419
0.99628
0.996154
0.996018
0.995863
0.995698
0.995527
0.995348
0.995178
0.994998
0.994819
0.994692
0.994546
0.994478
0.994339
0.994456
0.994072
0.994319
0.992802
0.99068
0.981554
0.968825
0.91469
0.829234
0.393699
0.0505807
0.99837
0.998237
0.998125
0.998028
0.99794
0.99786
0.997786
0.997718
0.997654
0.997595
0.99754
0.997488
0.997438
0.99739
0.997343
0.997297
0.997252
0.997208
0.997164
0.99712
0.997078
0.997036
0.996995
0.996955
0.996916
0.996879
0.996844
0.99681
0.996778
0.996748
0.996719
0.996691
0.996666
0.996643
0.996621
0.996602
0.996585
0.996571
0.996561
0.996554
0.996551
0.99655
0.996555
0.996564
0.996579
0.996601
0.996628
0.996663
0.996703
0.996749
0.996797
0.996851
0.99691
0.996968
0.997015
0.997049
0.997072
0.997085
0.997077
0.997051
0.997014
0.996966
0.996901
0.996822
0.996725
0.996593
0.996444
0.996331
0.996218
0.996084
0.995928
0.995767
0.995599
0.995428
0.995257
0.995076
0.994907
0.994782
0.994632
0.994554
0.994429
0.994523
0.9942
0.994436
0.993145
0.991224
0.982857
0.971552
0.9209
0.841222
0.408777
0.0527657
0.996941
0.996903
0.996866
0.996832
0.996799
0.996767
0.996737
0.996708
0.996681
0.996656
0.996633
0.996612
0.996593
0.996578
0.996566
0.996557
0.99655
0.996548
0.99655
0.996557
0.99657
0.996588
0.996613
0.996644
0.996681
0.996724
0.996769
0.996825
0.996887
0.996945
0.996991
0.997024
0.997049
0.997066
0.997064
0.997044
0.997013
0.996973
0.996914
0.996841
0.996744
0.996614
0.996487
0.996405
0.996299
0.996163
0.99601
0.995852
0.99569
0.995523
0.995357
0.995179
0.995018
0.994889
0.99474
0.994667
0.994551
0.994616
0.994347
0.994554
0.993453
0.99175
0.984119
0.974196
0.927039
0.853408
0.424545
0.0551135
0.996889
0.996853
0.996819
0.996786
0.996754
0.996725
0.996697
0.99667
0.996645
0.996622
0.996601
0.996584
0.99657
0.996559
0.99655
0.996545
0.996545
0.99655
0.99656
0.996576
0.996598
0.996626
0.99666
0.996698
0.996742
0.996801
0.996865
0.996922
0.996966
0.996997
0.997025
0.99705
0.997053
0.99704
0.997014
0.996977
0.996923
0.996856
0.996763
0.996645
0.996874
0.996838
0.996804
0.996772
0.996742
0.996711
0.996683
0.996657
0.996632
0.99661
0.996592
0.996575
0.996561
0.99655
0.996543
0.996541
0.996543
0.996551
0.996564
0.996582
0.996607
0.996638
0.996672
0.996717
0.996781
0.996846
0.996899
0.996937
0.996966
0.996999
0.997036
0.99704
0.997028
0.997008
0.996975
0.996929
0.996869
0.996789
0.996823
0.996789
0.996757
0.996725
0.996696
0.996668
0.996642
0.996619
0.996598
0.996579
0.996562
0.996549
0.996541
0.996536
0.996537
0.996542
0.996552
0.996567
0.996588
0.996616
0.996645
0.996696
0.996766
0.996826
0.996869
0.996901
0.996928
0.996975
0.997022
0.997013
0.997
0.996985
0.996959
0.996922
0.996874
0.996807
0.996771
0.996738
0.996709
0.996678
0.996652
0.996627
0.996605
0.996582
0.996564
0.99655
0.996539
0.996532
0.99653
0.996532
0.996539
0.996551
0.996568
0.996594
0.996618
0.996683
0.996749
0.996795
0.996826
0.996855
0.996882
0.996946
0.996754
0.996719
0.996687
0.996661
0.996634
0.996608
0.996583
0.996566
0.99655
0.996537
0.996528
0.996524
0.996523
0.996526
0.996534
0.996548
0.996571
0.996592
0.996672
0.996716
0.996742
0.996765
0.996792
0.996823
0.9967
0.996668
0.996637
0.996608
0.996583
0.996567
0.996547
0.996534
0.996524
0.996516
0.996511
0.996511
0.996516
0.996527
0.996546
0.996567
0.99659
0.996565
0.996541
0.996529
0.996517
0.996505
0.996496
0.996493
0.996495
0.996504
0.996518
0.996535
0.996543
0.996522
0.996501
0.996485
0.996474
0.996468
0.996466
0.99647
0.996479
0.996492
0.955507
0.943
0.903743
0.958883
0.957195
0.957349
0.943964
0.903937
0.852575
0.824799
0.831054
0.797187
0.714143
0.672738
0.716288
0.739637
0.659681
0.563501
0.505445
0.317992
0.174057
0.0707006
0.975541
0.973919
0.972129
0.970015
0.967371
0.963867
0.959979
0.958667
0.958929
0.944531
0.90363
0.853676
0.829445
0.833559
0.787771
0.70591
0.674697
0.722587
0.728494
0.645011
0.554287
0.510008
0.321938
0.178382
0.0771251
0.981499
0.980035
0.978522
0.976993
0.975499
0.973925
0.972204
0.970202
0.967724
0.964456
0.960896
0.960024
0.960291
0.944602
0.902723
0.854795
0.834332
0.834255
0.776534
0.697811
0.678562
0.72791
0.714022
0.627536
0.543552
0.502569
0.325986
0.184531
0.0852593
0.986396
0.985396
0.984207
0.982868
0.981428
0.979924
0.978385
0.976849
0.975363
0.973824
0.972167
0.970267
0.967949
0.964912
0.96166
0.961207
0.961387
0.944149
0.901372
0.855919
0.839149
0.832031
0.763366
0.690421
0.684477
0.730015
0.695276
0.60731
0.531072
0.495632
0.335884
0.193665
0.0955518
0.988454
0.988076
0.987436
0.986557
0.985466
0.984199
0.982788
0.98129
0.979739
0.978168
0.97662
0.975134
0.973621
0.972015
0.970206
0.968031
0.965213
0.962259
0.962216
0.962187
0.943153
0.899632
0.857246
0.843615
0.825796
0.748534
0.684529
0.692043
0.725319
0.671348
0.584511
0.517194
0.486944
0.361708
0.208474
0.108623
0.988986
0.989065
0.988853
0.988367
0.98763
0.986656
0.98548
0.984131
0.982648
0.981087
0.979486
0.977875
0.976309
0.974819
0.973325
0.971752
0.970015
0.967976
0.965365
0.962685
0.963032
0.96266
0.941623
0.89762
0.858916
0.847134
0.814641
0.732752
0.680866
0.699823
0.710335
0.642115
0.559477
0.502247
0.476151
0.418987
0.230608
0.123458
0.988654
0.989242
0.989524
0.989503
0.989193
0.988608
0.98777
0.9867
0.985434
0.984002
0.982448
0.980824
0.979168
0.977515
0.975921
0.97442
0.97293
0.97138
0.969697
0.967779
0.965359
0.962929
0.963641
0.962764
0.939542
0.895524
0.86096
0.848799
0.799518
0.717059
0.679917
0.704883
0.687173
0.608495
0.532524
0.486365
0.46552
0.453877
0.245864
0.137689
0.98543
0.986467
0.987518
0.988498
0.989293
0.989811
0.990011
0.989897
0.989485
0.988794
0.987855
0.986692
0.985336
0.983821
0.982192
0.980503
0.978788
0.97709
0.975462
0.97394
0.972439
0.970897
0.969255
0.967442
0.965188
0.962979
0.964024
0.962469
0.936919
0.893489
0.863307
0.847407
0.781711
0.702552
0.681486
0.702428
0.655336
0.570831
0.50419
0.469764
0.457113
0.452809
0.248153
0.134272
0.982754
0.983437
0.984231
0.985125
0.986103
0.987139
0.988184
0.989141
0.989892
0.990342
0.990454
0.99024
0.989723
0.988928
0.987888
0.986632
0.985186
0.983591
0.981887
0.980131
0.978355
0.976605
0.974936
0.973379
0.971855
0.970305
0.968687
0.96696
0.964851
0.962808
0.964165
0.96175
0.933849
0.891685
0.865664
0.841415
0.761232
0.69016
0.684069
0.685788
0.613987
0.530027
0.475113
0.453018
0.449412
0.446487
0.248741
0.126065
0.981967
0.982306
0.982769
0.983352
0.98405
0.984858
0.985763
0.986748
0.987788
0.988825
0.989755
0.990455
0.990829
0.990851
0.990534
0.989911
0.989012
0.987873
0.986523
0.984991
0.983317
0.981537
0.979712
0.977873
0.976063
0.974343
0.972738
0.971182
0.969603
0.967996
0.966338
0.964334
0.962411
0.964043
0.960583
0.930369
0.890336
0.867366
0.829138
0.738994
0.680735
0.683903
0.651813
0.564942
0.487601
0.445935
0.436878
0.440827
0.443881
0.250933
0.117207
0.982128
0.982244
0.982482
0.982845
0.98333
0.983932
0.984647
0.985467
0.986381
0.987371
0.988409
0.989435
0.990335
0.990978
0.991275
0.991199
0.990779
0.99005
0.989049
0.987811
0.98637
0.984756
0.983
0.981147
0.979252
0.977343
0.97547
0.973686
0.972022
0.970416
0.968796
0.967181
0.965568
0.963626
0.961779
0.96365
0.958948
0.926649
0.889465
0.867401
0.809636
0.716458
0.674298
0.674331
0.607517
0.5116
0.444841
0.417406
0.422159
0.432884
0.439965
0.253833
0.109115
0.989932
0.99445
0.99553
0.996163
0.996599
0.996716
0.996641
0.996532
0.996421
0.996315
0.99621
0.996105
0.995996
0.995879
0.995746
0.995601
0.995445
0.995265
0.995054
0.994809
0.994529
0.994216
0.99387
0.993492
0.993082
0.992642
0.99217
0.991668
0.991138
0.990579
0.989996
0.989389
0.988765
0.988127
0.987481
0.986835
0.986197
0.985576
0.984983
0.984429
0.983925
0.983483
0.983115
0.982831
0.982641
0.982554
0.98258
0.982724
0.982987
0.983373
0.983878
0.984497
0.985225