/*--------------------------------*- C++ -*----------------------------------*\
  =========                 |
  \\      /  F ield         | OpenFOAM: The Open Source CFD Toolbox
   \\    /   O peration     | Website:  https://openfoam.org
    \\  /    A nd           | Version:  9
     \\/     M anipulation  |
\*---------------------------------------------------------------------------*/
FoamFile
{
    format      ascii;
    class       volScalarField;
    location    "2250";
    object      k;
}
// * * * * * * * * * * * * * * * * * * * * * * * * * * * * * * * * * * * * * //

dimensions      [0 2 -2 0 0 0 0];

internalField   nonuniform List<scalar> 
13538
(
8.93399e-06
2.1168e-07
5.29424e-09
8.79237e-08
6.21831e-07
9.91614e-07
1.13175e-06
1.1877e-06
1.24234e-06
1.31042e-06
1.38604e-06
1.46564e-06
1.54918e-06
1.63732e-06
1.73038e-06
1.82868e-06
1.93254e-06
2.04225e-06
2.15818e-06
2.28068e-06
2.41014e-06
2.54695e-06
2.69153e-06
2.84435e-06
3.00586e-06
3.17655e-06
3.35694e-06
3.54755e-06
3.74899e-06
3.96189e-06
4.1869e-06
4.42464e-06
4.67587e-06
4.94131e-06
5.22177e-06
5.51815e-06
5.83115e-06
6.1618e-06
6.51098e-06
6.87973e-06
7.26917e-06
7.68033e-06
8.11432e-06
8.57242e-06
9.0558e-06
9.56563e-06
1.01033e-05
1.06705e-05
1.12685e-05
1.18985e-05
1.25622e-05
1.32611e-05
1.3997e-05
1.47714e-05
1.55862e-05
1.64434e-05
1.73439e-05
1.82902e-05
1.92839e-05
2.03263e-05
2.14191e-05
2.25644e-05
2.37633e-05
2.50179e-05
2.633e-05
2.77016e-05
2.91346e-05
3.06312e-05
3.21928e-05
3.38195e-05
3.55126e-05
3.72734e-05
3.91053e-05
4.1011e-05
4.29932e-05
4.50505e-05
4.7181e-05
4.93853e-05
5.16604e-05
5.39954e-05
5.63782e-05
5.88053e-05
6.12694e-05
6.37523e-05
6.62919e-05
6.89742e-05
7.18819e-05
7.50175e-05
7.83298e-05
8.17582e-05
8.52776e-05
8.88812e-05
9.26861e-05
9.67298e-05
0.000101705
0.000111434
0.000137454
0.000179757
0.000145631
1.16041e-05
6.00203e-07
9.22823e-09
6.53947e-08
5.73084e-07
9.83023e-07
1.1566e-06
1.22272e-06
1.27716e-06
1.34473e-06
1.42155e-06
1.50303e-06
1.58846e-06
1.67843e-06
1.7734e-06
1.87367e-06
1.97956e-06
2.09138e-06
2.20949e-06
2.33424e-06
2.46602e-06
2.60521e-06
2.75226e-06
2.90758e-06
3.07165e-06
3.24495e-06
3.42802e-06
3.62138e-06
3.82563e-06
4.04135e-06
4.26915e-06
4.50973e-06
4.7638e-06
5.03207e-06
5.31532e-06
5.61433e-06
5.93002e-06
6.26321e-06
6.61491e-06
6.98605e-06
7.37765e-06
7.79076e-06
8.22649e-06
8.686e-06
9.17053e-06
9.68126e-06
1.02195e-05
1.07867e-05
1.1384e-05
1.2013e-05
1.26751e-05
1.33717e-05
1.41045e-05
1.4875e-05
1.56849e-05
1.65357e-05
1.74288e-05
1.83661e-05
1.9349e-05
2.03792e-05
2.14584e-05
2.25882e-05
2.37705e-05
2.50061e-05
2.62982e-05
2.76488e-05
2.90589e-05
3.05291e-05
3.20611e-05
3.36559e-05
3.53161e-05
3.70429e-05
3.88392e-05
4.0707e-05
4.26466e-05
4.4659e-05
4.67426e-05
4.89008e-05
5.11268e-05
5.34102e-05
5.5744e-05
5.81237e-05
6.0543e-05
6.2984e-05
6.54724e-05
6.80848e-05
7.09124e-05
7.39834e-05
7.7258e-05
8.06664e-05
8.41846e-05
8.77924e-05
9.16088e-05
9.5682e-05
0.000100495
0.00010884
0.000131919
0.000176346
0.0001522
1.38314e-05
1.11939e-06
2.29974e-08
1.23138e-08
4.50682e-07
9.07276e-07
1.13136e-06
1.2132e-06
1.26537e-06
1.32882e-06
1.40382e-06
1.48453e-06
1.56914e-06
1.65809e-06
1.75195e-06
1.85105e-06
1.95571e-06
2.06623e-06
2.18296e-06
2.30626e-06
2.43651e-06
2.5741e-06
2.71944e-06
2.87299e-06
3.03519e-06
3.20653e-06
3.38752e-06
3.5787e-06
3.78065e-06
3.99396e-06
4.21926e-06
4.45721e-06
4.70851e-06
4.97388e-06
5.25409e-06
5.54996e-06
5.86233e-06
6.19207e-06
6.54012e-06
6.90747e-06
7.2951e-06
7.70408e-06
8.13555e-06
8.5906e-06
9.0705e-06
9.57643e-06
1.01097e-05
1.06716e-05
1.12636e-05
1.1887e-05
1.25433e-05
1.32341e-05
1.39609e-05
1.47252e-05
1.55284e-05
1.63725e-05
1.7259e-05
1.81895e-05
1.91656e-05
2.01891e-05
2.12616e-05
2.23846e-05
2.356e-05
2.47889e-05
2.60731e-05
2.74139e-05
2.88129e-05
3.02711e-05
3.17907e-05
3.33717e-05
3.50182e-05
3.67331e-05
3.8516e-05
4.03677e-05
4.22896e-05
4.42837e-05
4.63521e-05
4.8493e-05
5.06999e-05
5.29637e-05
5.52786e-05
5.76431e-05
6.00459e-05
6.24738e-05
6.49464e-05
6.753e-05
7.03195e-05
7.33566e-05
7.66126e-05
8.00256e-05
8.35616e-05
8.71972e-05
9.10423e-05
9.51581e-05
9.99682e-05
0.000107674
0.000128652
0.000173522
0.000156939
1.57375e-05
8.14845e-07
5.83826e-09
9.91144e-09
3.56723e-07
8.30756e-07
1.10617e-06
1.21154e-06
1.26513e-06
1.32482e-06
1.39788e-06
1.4782e-06
1.56265e-06
1.65125e-06
1.74464e-06
1.84326e-06
1.94739e-06
2.05735e-06
2.17347e-06
2.29612e-06
2.42567e-06
2.56251e-06
2.70706e-06
2.85974e-06
3.02102e-06
3.19137e-06
3.37131e-06
3.56136e-06
3.7621e-06
3.97412e-06
4.19803e-06
4.43449e-06
4.6842e-06
4.94787e-06
5.22628e-06
5.5202e-06
5.83048e-06
6.158e-06
6.50368e-06
6.86848e-06
7.25341e-06
7.65951e-06
8.08792e-06
8.53964e-06
9.01601e-06
9.51817e-06
1.00475e-05
1.06052e-05
1.11926e-05
1.18112e-05
1.24625e-05
1.31478e-05
1.38688e-05
1.46271e-05
1.5424e-05
1.62614e-05
1.71406e-05
1.80637e-05
1.90319e-05
2.00471e-05
2.11106e-05
2.22244e-05
2.33902e-05
2.46092e-05
2.5883e-05
2.72131e-05
2.86016e-05
3.00492e-05
3.15577e-05
3.31285e-05
3.47623e-05
3.64602e-05
3.82247e-05
4.00555e-05
4.19551e-05
4.39289e-05
4.59759e-05
4.80922e-05
5.02738e-05
5.25154e-05
5.48105e-05
5.71528e-05
5.9535e-05
6.1947e-05
6.43999e-05
6.69481e-05
6.96897e-05
7.26821e-05
7.59096e-05
7.93161e-05
8.28603e-05
8.65163e-05
9.03852e-05
9.45411e-05
9.93515e-05
0.000106526
0.000125422
0.000170389
0.00016153
1.74227e-05
1.06436e-06
9.78382e-08
9.6218e-09
2.71894e-07
7.4243e-07
1.06754e-06
1.20343e-06
1.26216e-06
1.31819e-06
1.38845e-06
1.46788e-06
1.55197e-06
1.64006e-06
1.7328e-06
1.83069e-06
1.93406e-06
2.04321e-06
2.15847e-06
2.2802e-06
2.40877e-06
2.54457e-06
2.68801e-06
2.83952e-06
2.99954e-06
3.16856e-06
3.34709e-06
3.53564e-06
3.73479e-06
3.94512e-06
4.16723e-06
4.40179e-06
4.64948e-06
4.911e-06
5.18714e-06
5.47866e-06
5.7864e-06
6.1112e-06
6.45401e-06
6.81579e-06
7.1975e-06
7.60017e-06
8.02492e-06
8.47286e-06
8.94517e-06
9.44306e-06
9.96785e-06
1.05208e-05
1.11032e-05
1.17165e-05
1.23622e-05
1.30417e-05
1.37565e-05
1.45083e-05
1.52984e-05
1.61287e-05
1.70005e-05
1.79157e-05
1.88758e-05
1.98824e-05
2.09375e-05
2.20421e-05
2.31983e-05
2.44074e-05
2.56712e-05
2.69912e-05
2.8369e-05
2.98051e-05
3.1302e-05
3.28607e-05
3.44827e-05
3.61692e-05
3.79214e-05
3.97406e-05
4.16285e-05
4.35865e-05
4.56135e-05
4.77072e-05
4.98672e-05
5.209e-05
5.43645e-05
5.6686e-05
5.9053e-05
6.14547e-05
6.3894e-05
6.64167e-05
6.91171e-05
7.20683e-05
7.52638e-05
7.86586e-05
8.22093e-05
8.58855e-05
8.97805e-05
9.39721e-05
9.88054e-05
0.000105627
0.000122668
0.000167199
0.0001656
1.89361e-05
1.67157e-06
2.29705e-08
7.59242e-09
2.00176e-07
6.49934e-07
1.01807e-06
1.19036e-06
1.25917e-06
1.31253e-06
1.37935e-06
1.45745e-06
1.54113e-06
1.62877e-06
1.72086e-06
1.81802e-06
1.92061e-06
2.02893e-06
2.14332e-06
2.26411e-06
2.39168e-06
2.52642e-06
2.66873e-06
2.81904e-06
2.97779e-06
3.14546e-06
3.32254e-06
3.50956e-06
3.70708e-06
3.91567e-06
4.13595e-06
4.36856e-06
4.61417e-06
4.8735e-06
5.14731e-06
5.43636e-06
5.7415e-06
6.06355e-06
6.4034e-06
6.76202e-06
7.14041e-06
7.53956e-06
7.9606e-06
8.40456e-06
8.87271e-06
9.36616e-06
9.88626e-06
1.04343e-05
1.10114e-05
1.16193e-05
1.22592e-05
1.29326e-05
1.3641e-05
1.43859e-05
1.5169e-05
1.59918e-05
1.68558e-05
1.77629e-05
1.87145e-05
1.97122e-05
2.07579e-05
2.18529e-05
2.29992e-05
2.41979e-05
2.54511e-05
2.67597e-05
2.8126e-05
2.9551e-05
3.10356e-05
3.2582e-05
3.41911e-05
3.58645e-05
3.76041e-05
3.94103e-05
4.12839e-05
4.32279e-05
4.5241e-05
4.73238e-05
4.94694e-05
5.16729e-05
5.39267e-05
5.62301e-05
5.85838e-05
6.0972e-05
6.34001e-05
6.59069e-05
6.85727e-05
7.14787e-05
7.46407e-05
7.80217e-05
8.15749e-05
8.52751e-05
8.91874e-05
9.34144e-05
9.82721e-05
0.000104869
0.0001203
0.000163961
0.000169477
2.03082e-05
2.02018e-06
3.98141e-08
3.62105e-09
1.40441e-07
5.5646e-07
9.57733e-07
1.17016e-06
1.25451e-06
1.307e-06
1.36993e-06
1.44608e-06
1.52915e-06
1.61633e-06
1.70776e-06
1.80412e-06
1.90586e-06
2.0133e-06
2.12673e-06
2.24651e-06
2.37301e-06
2.50661e-06
2.6477e-06
2.79672e-06
2.95409e-06
3.12031e-06
3.29584e-06
3.48122e-06
3.67699e-06
3.88374e-06
4.10205e-06
4.33257e-06
4.57598e-06
4.83296e-06
5.10427e-06
5.39069e-06
5.69306e-06
6.01216e-06
6.34891e-06
6.70422e-06
7.0791e-06
7.47452e-06
7.89156e-06
8.33136e-06
8.7951e-06
9.28393e-06
9.7991e-06
1.03419e-05
1.09136e-05
1.15156e-05
1.21494e-05
1.28164e-05
1.3518e-05
1.42559e-05
1.50315e-05
1.58465e-05
1.67024e-05
1.76011e-05
1.85438e-05
1.95321e-05
2.05681e-05
2.16532e-05
2.27892e-05
2.39774e-05
2.52194e-05
2.65166e-05
2.7871e-05
2.92833e-05
3.0756e-05
3.22895e-05
3.3886e-05
3.55457e-05
3.72715e-05
3.90635e-05
4.09232e-05
4.28528e-05
4.48529e-05
4.69215e-05
4.90538e-05
5.12457e-05
5.34903e-05
5.5782e-05
5.812e-05
6.04957e-05
6.29149e-05
6.54074e-05
6.80428e-05
7.09134e-05
7.40436e-05
7.74096e-05
8.09654e-05
8.46805e-05
8.86145e-05
9.28802e-05
9.7763e-05
0.000104212
0.000118197
0.00016073
0.000172964
2.15657e-05
1.54111e-07
3.3094e-08
1.21337e-09
9.2113e-08
4.65523e-07
8.88079e-07
1.1419e-06
1.24731e-06
1.30161e-06
1.36059e-06
1.43411e-06
1.51628e-06
1.60298e-06
1.69375e-06
1.78929e-06
1.89012e-06
1.9966e-06
2.10903e-06
2.22775e-06
2.35311e-06
2.48549e-06
2.6253e-06
2.77295e-06
2.92888e-06
3.09355e-06
3.26746e-06
3.45111e-06
3.64504e-06
3.84983e-06
4.06608e-06
4.29441e-06
4.53549e-06
4.79001e-06
5.0587e-06
5.34232e-06
5.64172e-06
5.95772e-06
6.2912e-06
6.64306e-06
7.01424e-06
7.40577e-06
7.81869e-06
8.25412e-06
8.71322e-06
9.19713e-06
9.70712e-06
1.02444e-05
1.08105e-05
1.14064e-05
1.20338e-05
1.26941e-05
1.33887e-05
1.41193e-05
1.48871e-05
1.5694e-05
1.65413e-05
1.7431e-05
1.83645e-05
1.93435e-05
2.03693e-05
2.1444e-05
2.25692e-05
2.3746e-05
2.49765e-05
2.62618e-05
2.76038e-05
2.90038e-05
3.04629e-05
3.19828e-05
3.35655e-05
3.52117e-05
3.69227e-05
3.87004e-05
4.0546e-05
4.2462e-05
4.44474e-05
4.6502e-05
4.86215e-05
5.07996e-05
5.30324e-05
5.53139e-05
5.76456e-05
6.00198e-05
6.2434e-05
6.4911e-05
6.75194e-05
7.03519e-05
7.34517e-05
7.68072e-05
8.03625e-05
8.41032e-05
8.80586e-05
9.23593e-05
9.72694e-05
0.000103631
0.000116425
0.000157557
0.000176325
2.273e-05
2.73659e-07
5.40617e-08
1.45216e-08
5.44717e-08
3.79223e-07
8.10924e-07
1.10487e-06
1.23639e-06
1.29595e-06
1.35144e-06
1.42168e-06
1.50252e-06
1.58865e-06
1.67877e-06
1.77345e-06
1.87334e-06
1.97882e-06
2.09018e-06
2.20776e-06
2.33192e-06
2.46303e-06
2.60149e-06
2.7477e-06
2.9021e-06
3.06516e-06
3.23734e-06
3.41917e-06
3.61118e-06
3.81393e-06
4.02801e-06
4.25404e-06
4.49268e-06
4.74461e-06
5.01053e-06
5.29119e-06
5.58744e-06
5.90014e-06
6.23015e-06
6.57834e-06
6.94569e-06
7.33317e-06
7.74177e-06
8.17266e-06
8.62693e-06
9.10571e-06
9.61032e-06
1.01419e-05
1.07019e-05
1.12915e-05
1.19124e-05
1.25657e-05
1.32529e-05
1.39757e-05
1.47356e-05
1.5534e-05
1.63725e-05
1.72529e-05
1.81766e-05
1.91455e-05
2.01612e-05
2.12249e-05
2.23385e-05
2.35037e-05
2.47222e-05
2.59952e-05
2.73243e-05
2.8711e-05
3.01564e-05
3.16627e-05
3.32312e-05
3.48628e-05
3.65596e-05
3.8322e-05
4.01522e-05
4.20533e-05
4.40253e-05
4.60656e-05
4.81698e-05
5.03333e-05
5.25522e-05
5.48241e-05
5.71486e-05
5.952e-05
6.19364e-05
6.44121e-05
6.69999e-05
6.97938e-05
7.28584e-05
7.61968e-05
7.97589e-05
8.35274e-05
8.75095e-05
9.18542e-05
9.6791e-05
0.000103102
0.000114907
0.00015444
0.000179183
2.38102e-05
6.13593e-07
7.77861e-08
2.23459e-09
2.4071e-08
2.99202e-07
7.28179e-07
1.05874e-06
1.22057e-06
1.28945e-06
1.34254e-06
1.40901e-06
1.488e-06
1.5734e-06
1.66287e-06
1.75669e-06
1.85559e-06
1.95999e-06
2.07024e-06
2.18664e-06
2.30953e-06
2.4393e-06
2.57634e-06
2.72104e-06
2.87385e-06
3.03521e-06
3.2056e-06
3.38552e-06
3.57551e-06
3.77612e-06
3.98792e-06
4.21155e-06
4.44765e-06
4.69689e-06
4.95991e-06
5.23747e-06
5.53039e-06
5.83956e-06
6.16586e-06
6.51021e-06
6.8735e-06
7.2567e-06
7.66084e-06
8.08692e-06
8.53616e-06
9.00963e-06
9.5086e-06
1.00343e-05
1.0588e-05
1.11711e-05
1.1785e-05
1.2431e-05
1.31106e-05
1.38254e-05
1.45768e-05
1.53665e-05
1.61956e-05
1.70665e-05
1.79802e-05
1.89386e-05
1.99432e-05
2.09957e-05
2.20978e-05
2.32509e-05
2.44569e-05
2.57167e-05
2.70323e-05
2.84055e-05
2.98369e-05
3.13282e-05
3.28817e-05
3.44985e-05
3.61801e-05
3.79271e-05
3.97415e-05
4.16281e-05
4.35857e-05
4.56109e-05
4.76992e-05
4.98471e-05
5.20515e-05
5.43118e-05
5.6627e-05
5.89939e-05
6.14099e-05
6.38851e-05
6.64599e-05
6.92291e-05
7.22616e-05
7.55801e-05
7.91442e-05
8.29393e-05
8.69577e-05
9.13513e-05
9.63223e-05
0.000102606
0.000113653
0.000151426
0.000181986
2.48233e-05
1.25747e-06
1.20943e-07
3.40165e-09
4.85884e-09
2.26931e-07
6.41518e-07
1.00339e-06
1.19873e-06
1.28135e-06
1.33385e-06
1.3963e-06
1.47284e-06
1.55727e-06
1.64606e-06
1.73903e-06
1.83689e-06
1.94018e-06
2.04925e-06
2.16441e-06
2.28598e-06
2.41436e-06
2.5499e-06
2.69303e-06
2.84417e-06
3.00375e-06
3.17227e-06
3.3502e-06
3.53808e-06
3.73645e-06
3.94589e-06
4.16701e-06
4.40047e-06
4.64688e-06
4.90688e-06
5.18122e-06
5.47068e-06
5.77615e-06
6.0985e-06
6.4387e-06
6.79773e-06
7.17645e-06
7.5759e-06
7.99705e-06
8.44102e-06
8.90894e-06
9.40207e-06
9.92156e-06
1.04688e-05
1.10451e-05
1.16517e-05
1.22902e-05
1.29618e-05
1.36682e-05
1.44109e-05
1.51914e-05
1.60112e-05
1.6872e-05
1.77752e-05
1.87227e-05
1.9716e-05
2.0757e-05
2.18467e-05
2.2987e-05
2.41797e-05
2.54264e-05
2.67278e-05
2.80864e-05
2.95034e-05
3.09802e-05
3.25186e-05
3.41197e-05
3.5785e-05
3.75157e-05
3.93151e-05
4.11863e-05
4.31285e-05
4.51381e-05
4.7208e-05
4.93388e-05
5.15279e-05
5.37752e-05
5.60798e-05
5.84409e-05
6.08563e-05
6.33266e-05
6.58927e-05
6.86385e-05
7.16442e-05
7.4946e-05
7.85084e-05
8.23329e-05
8.6391e-05
9.08428e-05
9.5867e-05
0.000102149
0.000112585
0.000148517
0.000184609
2.57695e-05
2.19609e-06
2.82266e-09
7.59737e-09
4.76216e-10
1.65857e-07
5.5293e-07
9.38866e-07
1.16971e-06
1.27074e-06
1.32512e-06
1.38369e-06
1.45719e-06
1.54031e-06
1.62837e-06
1.72047e-06
1.81727e-06
1.9194e-06
2.02724e-06
2.1411e-06
2.2613e-06
2.3882e-06
2.5222e-06
2.66368e-06
2.81307e-06
2.97081e-06
3.13736e-06
3.31322e-06
3.4989e-06
3.69494e-06
3.9019e-06
4.12041e-06
4.35108e-06
4.59455e-06
4.85144e-06
5.12245e-06
5.40834e-06
5.70997e-06
6.02822e-06
6.36408e-06
6.71852e-06
7.09253e-06
7.48698e-06
7.90295e-06
8.34152e-06
8.80372e-06
9.29079e-06
9.80388e-06
1.03444e-05
1.09134e-05
1.15127e-05
1.21433e-05
1.28067e-05
1.35045e-05
1.42379e-05
1.50089e-05
1.58187e-05
1.66692e-05
1.75616e-05
1.8498e-05
1.94795e-05
2.05081e-05
2.15851e-05
2.27121e-05
2.38913e-05
2.51241e-05
2.64114e-05
2.77551e-05
2.91568e-05
3.06183e-05
3.21415e-05
3.37268e-05
3.53759e-05
3.70893e-05
3.88718e-05
4.0727e-05
4.26539e-05
4.4645e-05
4.66966e-05
4.88084e-05
5.09806e-05
5.32138e-05
5.55082e-05
5.78608e-05
6.0271e-05
6.27402e-05
6.52948e-05
6.80189e-05
7.09993e-05
7.42865e-05
7.78533e-05
8.17017e-05
8.58006e-05
9.03192e-05
9.54071e-05
0.00010171
0.000111711
0.000145713
0.000187008
2.66596e-05
4.35043e-07
1.20953e-08
9.76987e-09
7.51024e-09
1.18029e-07
4.65081e-07
8.65622e-07
1.13248e-06
1.25657e-06
1.31598e-06
1.37125e-06
1.4412e-06
1.52256e-06
1.60976e-06
1.701e-06
1.79673e-06
1.89765e-06
2.0042e-06
2.11669e-06
2.23545e-06
2.36083e-06
2.4932e-06
2.63296e-06
2.78053e-06
2.93633e-06
3.10084e-06
3.27453e-06
3.4579e-06
3.65151e-06
3.85589e-06
4.07166e-06
4.29944e-06
4.53983e-06
4.79347e-06
5.06108e-06
5.34334e-06
5.64104e-06
5.95507e-06
6.28642e-06
6.63609e-06
7.00507e-06
7.39432e-06
7.80484e-06
8.23768e-06
8.69387e-06
9.17467e-06
9.68115e-06
1.02147e-05
1.07764e-05
1.13678e-05
1.19903e-05
1.26451e-05
1.33339e-05
1.4058e-05
1.48192e-05
1.56187e-05
1.64584e-05
1.73396e-05
1.82642e-05
1.92335e-05
2.02493e-05
2.13133e-05
2.24269e-05
2.35917e-05
2.48095e-05
2.60819e-05
2.74107e-05
2.87971e-05
3.02431e-05
3.17503e-05
3.33192e-05
3.49512e-05
3.66471e-05
3.84125e-05
4.02514e-05
4.21606e-05
4.41321e-05
4.61625e-05
4.8255e-05
5.04109e-05
5.26298e-05
5.49117e-05
5.72544e-05
5.9657e-05
6.21189e-05
6.46656e-05
6.73705e-05
7.03236e-05
7.35925e-05
7.71611e-05
8.1039e-05
8.51837e-05
8.97721e-05
9.49364e-05
0.000101281
0.000111016
0.00014301
0.000189483
2.74942e-05
1.11216e-06
8.88084e-08
1.2204e-08
1.07113e-09
7.93176e-08
3.81239e-07
7.85062e-07
1.08627e-06
1.23768e-06
1.30586e-06
1.35898e-06
1.42496e-06
1.50405e-06
1.59021e-06
1.68058e-06
1.77521e-06
1.87487e-06
1.98006e-06
2.09113e-06
2.20838e-06
2.33216e-06
2.46284e-06
2.6008e-06
2.74646e-06
2.90025e-06
3.06262e-06
3.23404e-06
3.41502e-06
3.60607e-06
3.80777e-06
4.0207e-06
4.24543e-06
4.48259e-06
4.73286e-06
4.99696e-06
5.27553e-06
5.5693e-06
5.87909e-06
6.20585e-06
6.55062e-06
6.91435e-06
7.29806e-06
7.70279e-06
8.12964e-06
8.5796e-06
9.05384e-06
9.55344e-06
1.00797e-05
1.06338e-05
1.12172e-05
1.18312e-05
1.24772e-05
1.31568e-05
1.38712e-05
1.46221e-05
1.54109e-05
1.62394e-05
1.71092e-05
1.80217e-05
1.89783e-05
1.9981e-05
2.1031e-05
2.21303e-05
2.32811e-05
2.44841e-05
2.57409e-05
2.70537e-05
2.8425e-05
2.98555e-05
3.1346e-05
3.28979e-05
3.45109e-05
3.61886e-05
3.79367e-05
3.97578e-05
4.16479e-05
4.35988e-05
4.56063e-05
4.76791e-05
4.98172e-05
5.20197e-05
5.42876e-05
5.66196e-05
5.90148e-05
6.147e-05
6.40079e-05
6.66943e-05
6.9618e-05
7.28625e-05
7.64261e-05
8.03315e-05
8.45269e-05
8.9193e-05
9.44454e-05
0.000100865
0.000110469
0.000140474
0.000191799
2.8287e-05
1.61587e-06
1.39606e-07
1.48043e-08
3.18758e-09
4.97231e-08
3.03527e-07
6.99278e-07
1.03077e-06
1.2129e-06
1.29405e-06
1.34674e-06
1.4086e-06
1.48483e-06
1.56967e-06
1.65913e-06
1.75267e-06
1.85102e-06
1.9548e-06
2.06438e-06
2.18005e-06
2.30216e-06
2.43106e-06
2.56715e-06
2.71082e-06
2.8625e-06
3.02264e-06
3.1917e-06
3.37017e-06
3.55857e-06
3.75747e-06
3.96742e-06
4.189e-06
4.42281e-06
4.66959e-06
4.93004e-06
5.2048e-06
5.49454e-06
5.80007e-06
6.12225e-06
6.46202e-06
6.82039e-06
7.19839e-06
7.59714e-06
8.01767e-06
8.46107e-06
8.92844e-06
9.42088e-06
9.9396e-06
1.04858e-05
1.10609e-05
1.16663e-05
1.23031e-05
1.2973e-05
1.36774e-05
1.44178e-05
1.51956e-05
1.60126e-05
1.68702e-05
1.77702e-05
1.87138e-05
1.97029e-05
2.07391e-05
2.18237e-05
2.29594e-05
2.41469e-05
2.53878e-05
2.66849e-05
2.80403e-05
2.94549e-05
3.09282e-05
3.24616e-05
3.40558e-05
3.57137e-05
3.74441e-05
3.92464e-05
4.11141e-05
4.3042e-05
4.50282e-05
4.70789e-05
4.91983e-05
5.13866e-05
5.36393e-05
5.5957e-05
5.834e-05
6.07902e-05
6.33186e-05
6.5988e-05
6.88836e-05
7.20986e-05
7.56518e-05
7.9577e-05
8.38167e-05
8.85674e-05
9.39235e-05
0.000100441
0.000110037
0.000138221
0.00019418
2.90375e-05
2.14164e-06
1.95415e-07
1.35478e-09
3.08329e-09
2.7493e-08
2.33871e-07
6.10752e-07
9.66344e-07
1.18124e-06
1.27968e-06
1.33432e-06
1.39222e-06
1.46501e-06
1.54814e-06
1.6366e-06
1.72906e-06
1.82608e-06
1.92838e-06
2.0364e-06
2.15043e-06
2.2708e-06
2.39786e-06
2.532e-06
2.6736e-06
2.82309e-06
2.9809e-06
3.14751e-06
3.32338e-06
3.50903e-06
3.70501e-06
3.91188e-06
4.13017e-06
4.36051e-06
4.60366e-06
4.86033e-06
5.13111e-06
5.41671e-06
5.7179e-06
6.03548e-06
6.37025e-06
6.72323e-06
7.09542e-06
7.48796e-06
7.902e-06
8.33858e-06
8.79877e-06
9.2837e-06
9.79464e-06
1.03326e-05
1.08992e-05
1.14955e-05
1.21228e-05
1.27829e-05
1.34768e-05
1.42065e-05
1.49729e-05
1.5778e-05
1.66233e-05
1.75101e-05
1.84403e-05
1.94153e-05
2.04371e-05
2.15073e-05
2.26278e-05
2.37995e-05
2.50243e-05
2.63046e-05
2.76435e-05
2.9041e-05
3.04961e-05
3.20095e-05
3.35835e-05
3.52222e-05
3.69324e-05
3.87153e-05
4.05609e-05
4.24644e-05
4.44276e-05
4.64585e-05
4.85583e-05
5.07286e-05
5.29647e-05
5.52669e-05
5.76376e-05
6.00766e-05
6.25989e-05
6.5251e-05
6.8117e-05
7.12996e-05
7.48297e-05
7.87683e-05
8.30545e-05
8.78931e-05
9.33647e-05
0.000100012
0.00010971
0.000136301
0.000196681
2.97423e-05
2.66445e-06
2.56986e-07
3.06478e-09
6.41016e-10
1.15208e-08
1.73092e-07
5.22131e-07
8.93851e-07
1.14186e-06
1.26177e-06
1.32135e-06
1.37592e-06
1.44477e-06
1.5257e-06
1.61301e-06
1.70438e-06
1.80006e-06
1.90084e-06
2.00723e-06
2.11956e-06
2.23813e-06
2.36327e-06
2.49538e-06
2.63484e-06
2.78206e-06
2.93747e-06
3.10153e-06
3.27471e-06
3.45751e-06
3.65048e-06
3.85416e-06
4.06906e-06
4.29582e-06
4.53524e-06
4.78794e-06
5.05456e-06
5.33583e-06
5.63253e-06
5.9454e-06
6.27515e-06
6.62271e-06
6.98912e-06
7.37545e-06
7.78277e-06
8.21224e-06
8.66498e-06
9.14213e-06
9.64493e-06
1.01745e-05
1.07322e-05
1.13191e-05
1.19367e-05
1.25865e-05
1.32697e-05
1.3988e-05
1.47427e-05
1.55356e-05
1.63679e-05
1.72415e-05
1.81576e-05
1.91183e-05
2.01254e-05
2.11811e-05
2.22862e-05
2.34415e-05
2.46493e-05
2.59132e-05
2.72352e-05
2.86142e-05
3.00492e-05
3.15415e-05
3.30938e-05
3.47126e-05
3.64036e-05
3.81648e-05
3.99859e-05
4.18645e-05
4.38052e-05
4.58148e-05
4.78945e-05
5.00447e-05
5.22622e-05
5.45479e-05
5.69028e-05
5.93335e-05
6.18465e-05
6.44834e-05
6.73211e-05
7.04657e-05
7.39713e-05
7.79122e-05
8.22345e-05
8.71586e-05
9.27444e-05
9.95663e-05
0.000109468
0.00013475
0.000198847
3.04145e-05
2.76569e-07
2.44455e-08
8.81171e-09
1.66919e-09
1.7939e-09
1.21976e-07
4.35891e-07
8.14616e-07
1.09425e-06
1.23931e-06
1.3073e-06
1.35975e-06
1.42431e-06
1.50249e-06
1.58841e-06
1.67867e-06
1.77302e-06
1.87224e-06
1.97695e-06
2.08751e-06
2.2042e-06
2.32738e-06
2.4574e-06
2.59464e-06
2.73952e-06
2.89245e-06
3.05388e-06
3.22428e-06
3.40414e-06
3.59401e-06
3.79439e-06
4.00578e-06
4.22889e-06
4.46444e-06
4.71304e-06
4.9753e-06
5.25204e-06
5.54404e-06
5.85197e-06
6.17654e-06
6.51865e-06
6.87926e-06
7.25938e-06
7.66005e-06
8.08231e-06
8.52742e-06
8.99653e-06
9.49096e-06
1.00118e-05
1.05602e-05
1.11375e-05
1.17449e-05
1.2384e-05
1.30561e-05
1.37628e-05
1.45054e-05
1.52857e-05
1.61049e-05
1.69647e-05
1.78662e-05
1.88124e-05
1.98049e-05
2.08457e-05
2.19349e-05
2.30734e-05
2.42633e-05
2.55093e-05
2.68131e-05
2.81728e-05
2.95864e-05
3.10572e-05
3.25879e-05
3.41855e-05
3.58554e-05
3.75939e-05
3.93907e-05
4.1244e-05
4.31615e-05
4.51495e-05
4.72094e-05
4.93383e-05
5.15352e-05
5.38013e-05
5.61396e-05
5.85569e-05
6.1061e-05
6.36828e-05
6.64907e-05
6.95952e-05
7.30674e-05
7.70026e-05
8.13524e-05
8.63572e-05
9.20672e-05
9.90797e-05
0.000109293
0.000133841
0.00020107
3.10501e-05
1.72319e-06
1.2198e-07
1.37361e-08
3.83389e-10
7.76724e-09
8.19596e-08
3.54118e-07
7.30103e-07
1.03813e-06
1.21126e-06
1.2915e-06
1.34361e-06
1.40384e-06
1.4787e-06
1.56289e-06
1.65198e-06
1.745e-06
1.84264e-06
1.94562e-06
2.05435e-06
2.16912e-06
2.29026e-06
2.41812e-06
2.55308e-06
2.69555e-06
2.84592e-06
3.00465e-06
3.17219e-06
3.34903e-06
3.53571e-06
3.73268e-06
3.94047e-06
4.15982e-06
4.39142e-06
4.63576e-06
4.89354e-06
5.16559e-06
5.45265e-06
5.75536e-06
6.0745e-06
6.41099e-06
6.76573e-06
7.13958e-06
7.53352e-06
7.94859e-06
8.38604e-06
8.84704e-06
9.33282e-06
9.84468e-06
1.03836e-05
1.09509e-05
1.15479e-05
1.21759e-05
1.28366e-05
1.35313e-05
1.42614e-05
1.50287e-05
1.58343e-05
1.66798e-05
1.75668e-05
1.84978e-05
1.94757e-05
2.05011e-05
2.1574e-05
2.26947e-05
2.38666e-05
2.50944e-05
2.63785e-05
2.77169e-05
2.91088e-05
3.05563e-05
3.20645e-05
3.36413e-05
3.52908e-05
3.70047e-05
3.8774e-05
4.06018e-05
4.24963e-05
4.44629e-05
4.64999e-05
4.86068e-05
5.07807e-05
5.30259e-05
5.53447e-05
5.77479e-05
6.0239e-05
6.28454e-05
6.56268e-05
6.86937e-05
7.21256e-05
7.60422e-05
8.04082e-05
8.54892e-05
9.13125e-05
9.85546e-05
0.000109157
0.000133415
0.000202949
3.16523e-05
2.67255e-06
2.39926e-09
1.78332e-09
4.54391e-10
3.32108e-09
5.27065e-08
2.79035e-07
6.4202e-07
9.73469e-07
1.17663e-06
1.27312e-06
1.32729e-06
1.38352e-06
1.45452e-06
1.53655e-06
1.62433e-06
1.71604e-06
1.8121e-06
1.9133e-06
2.02014e-06
2.13293e-06
2.25198e-06
2.37762e-06
2.51024e-06
2.65022e-06
2.79796e-06
2.95392e-06
3.11852e-06
3.29225e-06
3.47565e-06
3.6691e-06
3.8732e-06
4.08872e-06
4.31622e-06
4.5562e-06
4.80938e-06
5.07659e-06
5.35853e-06
5.65578e-06
5.96925e-06
6.2999e-06
6.64854e-06
7.016e-06
7.40313e-06
7.81097e-06
8.2407e-06
8.69351e-06
9.17065e-06
9.67325e-06
1.02025e-05
1.07596e-05
1.13459e-05
1.19627e-05
1.26114e-05
1.32937e-05
1.40109e-05
1.47648e-05
1.55565e-05
1.63875e-05
1.72594e-05
1.81755e-05
1.91379e-05
2.01477e-05
2.12029e-05
2.2305e-05
2.3458e-05
2.46663e-05
2.59299e-05
2.72463e-05
2.86146e-05
3.00398e-05
3.15262e-05
3.30815e-05
3.47075e-05
3.63957e-05
3.81387e-05
3.99415e-05
4.18115e-05
4.37544e-05
4.57677e-05
4.78505e-05
5.00002e-05
5.22218e-05
5.45219e-05
5.69056e-05
5.93828e-05
6.19752e-05
6.47299e-05
6.77544e-05
7.11395e-05
7.50334e-05
7.93999e-05
8.45476e-05
9.04796e-05
9.79659e-05
0.000109039
0.000133674
0.000205242
3.22284e-05
1.23157e-08
2.68528e-09
6.73939e-09
4.99377e-10
5.16554e-10
3.05913e-08
2.12401e-07
5.52483e-07
9.00528e-07
1.13446e-06
1.25123e-06
1.31042e-06
1.36344e-06
1.43014e-06
1.50949e-06
1.59576e-06
1.68615e-06
1.78063e-06
1.88002e-06
1.98492e-06
2.09566e-06
2.21256e-06
2.33593e-06
2.46614e-06
2.60357e-06
2.74862e-06
2.90172e-06
3.0633e-06
3.23385e-06
3.41386e-06
3.60371e-06
3.80405e-06
4.01564e-06
4.23893e-06
4.47441e-06
4.72292e-06
4.9852e-06
5.26182e-06
5.55346e-06
5.86107e-06
6.18562e-06
6.52788e-06
6.88866e-06
7.26879e-06
7.66923e-06
8.09122e-06
8.53583e-06
9.00419e-06
9.49745e-06
1.00168e-05
1.05636e-05
1.1139e-05
1.17443e-05
1.23809e-05
1.30505e-05
1.37545e-05
1.44948e-05
1.52722e-05
1.60882e-05
1.69447e-05
1.78456e-05
1.87925e-05
1.97856e-05
2.08223e-05
2.19047e-05
2.3038e-05
2.42261e-05
2.54678e-05
2.67609e-05
2.81064e-05
2.95082e-05
3.09716e-05
3.25056e-05
3.41088e-05
3.57688e-05
3.74833e-05
3.92595e-05
4.11063e-05
4.30245e-05
4.50127e-05
4.70683e-05
4.91937e-05
5.13907e-05
5.36673e-05
5.60336e-05
5.84918e-05
6.10675e-05
6.37953e-05
6.67814e-05
7.01147e-05
7.39715e-05
7.83288e-05
8.35314e-05
8.95546e-05
9.7309e-05
0.000108884
0.000134509
0.000208091
2.25876e-07
4.2529e-09
1.0834e-08
1.9016e-09
1.5302e-09
1.49455e-08
1.54752e-07
4.63797e-07
8.20052e-07
1.08388e-06
1.22469e-06
1.29244e-06
1.34358e-06
1.40575e-06
1.48184e-06
1.56631e-06
1.65532e-06
1.74824e-06
1.84581e-06
1.94871e-06
2.05736e-06
2.17205e-06
2.29309e-06
2.42082e-06
2.55564e-06
2.69792e-06
2.8481e-06
3.00659e-06
3.17388e-06
3.35041e-06
3.53655e-06
3.73309e-06
3.94066e-06
4.15957e-06
4.39047e-06
4.6342e-06
4.89141e-06
5.16259e-06
5.44849e-06
5.75014e-06
6.06843e-06
6.40404e-06
6.75781e-06
7.13064e-06
7.52353e-06
7.93761e-06
8.37385e-06
8.83328e-06
9.31707e-06
9.82641e-06
1.03626e-05
1.0927e-05
1.15208e-05
1.21453e-05
1.2802e-05
1.34926e-05
1.42187e-05
1.49812e-05
1.5782e-05
1.66232e-05
1.75085e-05
1.84392e-05
1.94141e-05
2.04311e-05
2.14935e-05
2.26068e-05
2.37738e-05
2.49925e-05
2.62617e-05
2.7583e-05
2.89622e-05
3.0404e-05
3.19157e-05
3.34932e-05
3.51238e-05
3.68092e-05
3.85594e-05
4.03813e-05
4.22725e-05
4.42336e-05
4.62616e-05
4.83597e-05
5.05325e-05
5.27848e-05
5.51284e-05
5.75672e-05
6.01223e-05
6.28271e-05
6.57737e-05
6.90544e-05
7.28626e-05
7.71978e-05
8.24395e-05
8.85396e-05
9.65595e-05
0.000108687
0.000135862
0.000212131
2.24728e-08
2.02867e-09
8.08569e-10
4.78786e-10
4.55756e-09
1.06584e-07
3.78269e-07
7.33218e-07
1.02419e-06
1.19227e-06
1.27261e-06
1.32385e-06
1.38154e-06
1.45377e-06
1.53604e-06
1.62358e-06
1.71496e-06
1.81069e-06
1.91156e-06
2.01805e-06
2.13047e-06
2.24912e-06
2.37433e-06
2.50647e-06
2.64592e-06
2.7931e-06
2.94842e-06
3.11238e-06
3.28534e-06
3.4677e-06
3.6604e-06
3.86381e-06
4.07823e-06
4.30447e-06
4.54337e-06
4.79535e-06
5.06093e-06
5.34102e-06
5.63662e-06
5.94848e-06
6.27722e-06
6.62374e-06
6.989e-06
7.37402e-06
7.77995e-06
8.2076e-06
8.6579e-06
9.13189e-06
9.63107e-06
1.01567e-05
1.071e-05
1.12921e-05
1.19043e-05
1.2548e-05
1.3225e-05
1.39366e-05
1.46841e-05
1.5469e-05
1.62948e-05
1.71643e-05
1.80778e-05
1.90334e-05
2.00295e-05
2.10712e-05
2.21645e-05
2.33096e-05
2.45043e-05
2.57488e-05
2.70471e-05
2.84029e-05
2.9822e-05
3.13113e-05
3.28612e-05
3.44604e-05
3.6117e-05
3.78411e-05
3.96364e-05
4.15004e-05
4.34327e-05
4.54324e-05
4.75016e-05
4.96459e-05
5.1873e-05
5.4191e-05
5.66081e-05
5.91441e-05
6.1822e-05
6.47312e-05
6.79571e-05
7.17078e-05
7.60021e-05
8.12713e-05
8.74322e-05
9.57143e-05
0.000108398
0.000137647
0.000217796
1.25845e-10
4.86956e-10
6.86067e-08
2.98286e-07
6.41904e-07
9.55041e-07
1.15253e-06
1.24987e-06
1.30397e-06
1.35766e-06
1.42549e-06
1.50504e-06
1.59093e-06
1.68077e-06
1.77468e-06
1.87349e-06
1.97777e-06
2.08787e-06
2.20407e-06
2.32669e-06
2.4561e-06
2.59266e-06
2.73678e-06
2.88887e-06
3.04941e-06
3.2187e-06
3.39726e-06
3.58607e-06
3.78515e-06
3.99498e-06
4.21655e-06
4.45049e-06
4.69706e-06
4.95696e-06
5.23121e-06
5.52064e-06
5.82587e-06
6.1476e-06
6.48673e-06
6.84423e-06
7.22118e-06
7.61867e-06
8.03732e-06
8.47813e-06
8.94224e-06
9.43099e-06
9.94579e-06
1.04878e-05
1.10581e-05
1.16578e-05
1.22883e-05
1.29514e-05
1.36483e-05
1.43803e-05
1.51495e-05
1.59596e-05
1.68128e-05
1.77081e-05
1.86429e-05
1.96177e-05
2.06392e-05
2.17119e-05
2.28341e-05
2.4004e-05
2.52238e-05
2.64984e-05
2.78309e-05
2.92275e-05
3.06926e-05
3.22122e-05
3.37797e-05
3.54074e-05
3.71059e-05
3.88732e-05
4.07079e-05
4.26088e-05
4.45781e-05
4.66181e-05
4.87344e-05
5.09337e-05
5.32235e-05
5.56134e-05
5.8124e-05
6.07776e-05
6.36489e-05
6.68217e-05
7.05142e-05
7.47501e-05
8.00268e-05
8.62226e-05
9.4766e-05
0.000107995
0.000139543
0.000224959
3.35681e-09
4.1458e-08
2.26116e-07
5.4841e-07
8.76735e-07
1.1042e-06
1.22297e-06
1.28343e-06
1.33423e-06
1.39722e-06
1.47342e-06
1.55739e-06
1.64566e-06
1.73778e-06
1.83451e-06
1.93653e-06
2.04425e-06
2.15795e-06
2.27793e-06
2.40454e-06
2.53815e-06
2.67915e-06
2.82793e-06
2.98498e-06
3.15051e-06
3.32533e-06
3.51016e-06
3.70473e-06
3.90996e-06
4.12683e-06
4.35561e-06
4.59662e-06
4.8508e-06
5.11914e-06
5.40227e-06
5.70073e-06
6.01531e-06
6.3469e-06
6.69655e-06
7.06527e-06
7.45399e-06
7.86337e-06
8.29442e-06
8.74835e-06
9.22653e-06
9.73024e-06
1.02606e-05
1.08188e-05
1.14058e-05
1.2023e-05
1.26718e-05
1.33536e-05
1.40698e-05
1.48232e-05
1.56177e-05
1.64538e-05
1.73294e-05
1.82425e-05
1.9196e-05
2.01976e-05
2.12491e-05
2.23476e-05
2.34925e-05
2.46882e-05
2.59385e-05
2.72471e-05
2.8621e-05
3.00595e-05
3.15453e-05
3.30809e-05
3.4681e-05
3.6352e-05
3.80904e-05
3.98941e-05
4.17626e-05
4.37009e-05
4.57103e-05
4.77956e-05
4.99649e-05
5.22252e-05
5.45879e-05
5.70727e-05
5.96968e-05
6.25312e-05
6.56481e-05
6.92733e-05
7.34478e-05
7.87132e-05
8.49139e-05
9.3705e-05
0.000107446
0.000141396
0.000233228
2.2242e-08
1.63616e-07
4.55367e-07
7.904e-07
1.04665e-06
1.19063e-06
1.26146e-06
1.31108e-06
1.36909e-06