/*--------------------------------*- C++ -*----------------------------------*\
  =========                 |
  \\      /  F ield         | OpenFOAM: The Open Source CFD Toolbox
   \\    /   O peration     | Website:  https://openfoam.org
    \\  /    A nd           | Version:  9
     \\/     M anipulation  |
\*---------------------------------------------------------------------------*/
FoamFile
{
    format      ascii;
    class       volScalarField;
    location    "2250";
    object      nut;
}
// * * * * * * * * * * * * * * * * * * * * * * * * * * * * * * * * * * * * * //

dimensions      [0 2 -1 0 0 0 0];

internalField   nonuniform List<scalar> 
13538
(
8.78886e-07
2.15972e-06
7.93474e-08
7.87669e-07
8.16671e-07
7.95969e-07
7.82927e-07
7.79836e-07
7.81287e-07
7.82673e-07
7.83234e-07
7.83574e-07
7.83979e-07
7.84442e-07
7.84931e-07
7.85439e-07
7.8597e-07
7.86525e-07
7.87107e-07
7.87717e-07
7.88356e-07
7.89025e-07
7.89727e-07
7.90462e-07
7.91231e-07
7.92037e-07
7.92881e-07
7.93764e-07
7.94687e-07
7.95653e-07
7.96663e-07
7.97717e-07
7.98817e-07
7.99963e-07
8.01159e-07
8.02405e-07
8.037e-07
8.05047e-07
8.06445e-07
8.07896e-07
8.094e-07
8.10958e-07
8.12571e-07
8.14238e-07
8.15959e-07
8.17734e-07
8.19563e-07
8.21448e-07
8.23386e-07
8.25378e-07
8.27422e-07
8.29519e-07
8.31667e-07
8.33866e-07
8.36115e-07
8.38413e-07
8.40756e-07
8.43145e-07
8.45578e-07
8.4805e-07
8.5056e-07
8.53104e-07
8.55681e-07
8.58285e-07
8.60915e-07
8.63567e-07
8.66238e-07
8.68926e-07
8.71626e-07
8.74332e-07
8.77042e-07
8.79755e-07
8.82472e-07
8.8519e-07
8.87864e-07
8.90296e-07
8.92077e-07
8.92721e-07
8.91896e-07
8.89535e-07
8.85775e-07
8.8092e-07
8.75194e-07
8.68629e-07
8.62304e-07
8.58181e-07
8.57678e-07
8.60463e-07
8.6521e-07
8.70793e-07
8.7686e-07
8.83576e-07
8.92327e-07
9.04053e-07
9.25017e-07
9.85511e-07
1.16261e-06
1.35944e-06
2.16279e-07
8.90083e-07
2.87272e-06
1.60484e-07
8.01423e-07
8.2238e-07
8.01053e-07
7.86792e-07
7.82133e-07
7.82966e-07
7.84477e-07
7.85195e-07
7.85549e-07
7.85923e-07
7.86365e-07
7.86841e-07
7.87335e-07
7.87851e-07
7.88391e-07
7.88956e-07
7.89549e-07
7.9017e-07
7.90821e-07
7.91503e-07
7.92218e-07
7.92967e-07
7.9375e-07
7.94571e-07
7.95431e-07
7.9633e-07
7.97271e-07
7.98254e-07
7.99281e-07
8.00352e-07
8.0147e-07
8.02634e-07
8.03847e-07
8.05109e-07
8.06422e-07
8.07786e-07
8.09201e-07
8.10669e-07
8.12188e-07
8.13761e-07
8.15387e-07
8.17066e-07
8.18799e-07
8.20585e-07
8.22424e-07
8.24316e-07
8.26261e-07
8.28257e-07
8.30304e-07
8.32402e-07
8.3455e-07
8.36746e-07
8.38989e-07
8.41277e-07
8.43609e-07
8.45982e-07
8.48393e-07
8.50842e-07
8.53325e-07
8.5584e-07
8.58383e-07
8.60952e-07
8.63545e-07
8.66158e-07
8.68784e-07
8.71422e-07
8.74066e-07
8.76716e-07
8.79371e-07
8.82032e-07
8.84696e-07
8.87317e-07
8.89713e-07
8.91491e-07
8.92179e-07
8.91433e-07
8.892e-07
8.85598e-07
8.80931e-07
8.75445e-07
8.69093e-07
8.62663e-07
8.57951e-07
8.56651e-07
8.58856e-07
8.63349e-07
8.68868e-07
8.74904e-07
8.81467e-07
8.89953e-07
9.01386e-07
9.20278e-07
9.6901e-07
1.12594e-06
1.36546e-06
2.25651e-07
8.95548e-07
1.27955e-06
1.60904e-06
5.38313e-07
8.34785e-07
8.07775e-07
7.90069e-07
7.82757e-07
7.82622e-07
7.84316e-07
7.85307e-07
7.85721e-07
7.86071e-07
7.86497e-07
7.8697e-07
7.87464e-07
7.87978e-07
7.88515e-07
7.89077e-07
7.89666e-07
7.90283e-07
7.90929e-07
7.91606e-07
7.92314e-07
7.93056e-07
7.93832e-07
7.94645e-07
7.95496e-07
7.96386e-07
7.97317e-07
7.9829e-07
7.99306e-07
8.00366e-07
8.01472e-07
8.02624e-07
8.03823e-07
8.05072e-07
8.0637e-07
8.0772e-07
8.09122e-07
8.10575e-07
8.1208e-07
8.13639e-07
8.1525e-07
8.16915e-07
8.18633e-07
8.20404e-07
8.22229e-07
8.24106e-07
8.26035e-07
8.28017e-07
8.3005e-07
8.32134e-07
8.34268e-07
8.3645e-07
8.3868e-07
8.40955e-07
8.43274e-07
8.45635e-07
8.48037e-07
8.50476e-07
8.52949e-07
8.55455e-07
8.57989e-07
8.60547e-07
8.63127e-07
8.65724e-07
8.68335e-07
8.70956e-07
8.73583e-07
8.76218e-07
8.78861e-07
8.81509e-07
8.84157e-07
8.86761e-07
8.8914e-07
8.90914e-07
8.9161e-07
8.90895e-07
8.88736e-07
8.85258e-07
8.80748e-07
8.75451e-07
8.69317e-07
8.62958e-07
8.57975e-07
8.56161e-07
8.5793e-07
8.62216e-07
8.67711e-07
8.73767e-07
8.80289e-07
8.88601e-07
8.99853e-07
9.18062e-07
9.61075e-07
1.10214e-06
1.36126e-06
2.34771e-07
8.98698e-07
7.50001e-07
4.63458e-07
3.03226e-07
8.48439e-07
8.15202e-07
7.94395e-07
7.84394e-07
7.82853e-07
7.84489e-07
7.85778e-07
7.86309e-07
7.86645e-07
7.87045e-07
7.87509e-07
7.87999e-07
7.88509e-07
7.8904e-07
7.89595e-07
7.90177e-07
7.90786e-07
7.91424e-07
7.92092e-07
7.92791e-07
7.93522e-07
7.94287e-07
7.95089e-07
7.95927e-07
7.96805e-07
7.97722e-07
7.98681e-07
7.99683e-07
8.00728e-07
8.01818e-07
8.02953e-07
8.04134e-07
8.05364e-07
8.06644e-07
8.07974e-07
8.09356e-07
8.1079e-07
8.12276e-07
8.13814e-07
8.15405e-07
8.17049e-07
8.18745e-07
8.20495e-07
8.22298e-07
8.24153e-07
8.2606e-07
8.2802e-07
8.3003e-07
8.32091e-07
8.34202e-07
8.36362e-07
8.38569e-07
8.40821e-07
8.43118e-07
8.45457e-07
8.47836e-07
8.50252e-07
8.52704e-07
8.55188e-07
8.57701e-07
8.60239e-07
8.62799e-07
8.65378e-07
8.67971e-07
8.70575e-07
8.73187e-07
8.75805e-07
8.78425e-07
8.81048e-07
8.83669e-07
8.86245e-07
8.88597e-07
8.90354e-07
8.91045e-07
8.90358e-07
8.8829e-07
8.84948e-07
8.80598e-07
8.75491e-07
8.6959e-07
8.63332e-07
8.58103e-07
8.55742e-07
8.56998e-07
8.61006e-07
8.66446e-07
8.7251e-07
8.79004e-07
8.87127e-07
8.98143e-07
9.15604e-07
9.53761e-07
1.079e-06
1.35282e-06
2.42766e-07
9.00723e-07
2.30356e-06
1.4259e-06
3.89215e-07
8.62789e-07
8.22865e-07
7.99336e-07
7.86543e-07
7.83189e-07
7.84476e-07
7.86053e-07
7.86773e-07
7.87121e-07
7.87492e-07
7.87941e-07
7.88427e-07
7.88933e-07
7.89459e-07
7.90008e-07
7.90583e-07
7.91185e-07
7.91815e-07
7.92475e-07
7.93165e-07
7.93887e-07
7.94642e-07
7.95432e-07
7.96259e-07
7.97125e-07
7.98029e-07
7.98975e-07
7.99962e-07
8.00993e-07
8.02068e-07
8.03188e-07
8.04353e-07
8.05566e-07
8.06827e-07
8.08139e-07
8.09502e-07
8.10916e-07
8.12383e-07
8.13903e-07
8.15474e-07
8.17098e-07
8.18775e-07
8.20505e-07
8.22287e-07
8.24122e-07
8.26009e-07
8.27947e-07
8.29937e-07
8.31977e-07
8.34067e-07
8.36206e-07
8.38393e-07
8.40625e-07
8.42901e-07
8.4522e-07
8.4758e-07
8.49978e-07
8.52411e-07
8.54876e-07
8.57371e-07
8.59892e-07
8.62435e-07
8.64998e-07
8.67573e-07
8.70162e-07
8.72759e-07
8.75362e-07
8.77969e-07
8.80579e-07
8.83188e-07
8.85748e-07
8.88074e-07
8.89805e-07
8.9048e-07
8.89813e-07
8.87825e-07
8.84607e-07
8.80411e-07
8.75492e-07
8.69831e-07
8.63734e-07
8.5837e-07
8.5553e-07
8.56253e-07
8.59931e-07
8.65286e-07
8.71359e-07
8.77856e-07
8.85812e-07
8.96599e-07
9.13495e-07
9.4825e-07
1.05899e-06
1.34008e-06
2.49459e-07
9.02297e-07
2.12829e-06
2.38424e-07
7.21154e-06
8.71886e-07
8.3009e-07
8.04894e-07
7.89421e-07
7.83892e-07
7.84457e-07
7.86242e-07
7.87216e-07
7.8762e-07
7.87964e-07
7.88391e-07
7.8887e-07
7.89372e-07
7.89893e-07
7.90436e-07
7.91004e-07
7.91598e-07
7.9222e-07
7.92871e-07
7.93552e-07
7.94263e-07
7.95008e-07
7.95787e-07
7.96602e-07
7.97454e-07
7.98346e-07
7.99277e-07
8.0025e-07
8.01266e-07
8.02325e-07
8.0343e-07
8.04581e-07
8.05778e-07
8.07022e-07
8.08314e-07
8.09657e-07
8.11051e-07
8.12498e-07
8.13998e-07
8.15549e-07
8.17153e-07
8.1881e-07
8.20519e-07
8.2228e-07
8.24094e-07
8.25959e-07
8.27877e-07
8.29845e-07
8.31864e-07
8.33933e-07
8.3605e-07
8.38215e-07
8.40426e-07
8.42682e-07
8.44981e-07
8.4732e-07
8.49698e-07
8.52111e-07
8.54558e-07
8.57034e-07
8.59537e-07
8.62061e-07
8.64607e-07
8.67167e-07
8.69739e-07
8.72321e-07
8.74909e-07
8.77502e-07
8.80099e-07
8.82695e-07
8.85239e-07
8.87545e-07
8.89261e-07
8.89929e-07
8.89285e-07
8.87369e-07
8.84261e-07
8.80214e-07
8.75472e-07
8.70048e-07
8.64157e-07
8.58748e-07
8.55484e-07
8.55649e-07
8.58942e-07
8.64177e-07
8.70249e-07
8.76785e-07
8.84578e-07
8.95146e-07
9.11453e-07
9.43763e-07
1.04162e-06
1.32456e-06
2.56066e-07
9.03428e-07
1.87549e-06
3.26305e-07
2.25189e-07
8.74706e-07
8.37116e-07
8.10925e-07
7.93008e-07
7.85047e-07
7.84474e-07
7.86305e-07
7.87581e-07
7.88099e-07
7.88429e-07
7.88829e-07
7.89296e-07
7.89793e-07
7.90308e-07
7.90844e-07
7.91405e-07
7.91992e-07
7.92605e-07
7.93247e-07
7.93918e-07
7.9462e-07
7.95354e-07
7.96121e-07
7.96923e-07
7.97763e-07
7.98641e-07
7.99559e-07
8.00517e-07
8.01517e-07
8.02561e-07
8.03651e-07
8.04788e-07
8.05971e-07
8.072e-07
8.08475e-07
8.09799e-07
8.11173e-07
8.12599e-07
8.14077e-07
8.15608e-07
8.17192e-07
8.18828e-07
8.20517e-07
8.22257e-07
8.24049e-07
8.25894e-07
8.2779e-07
8.29737e-07
8.31734e-07
8.33781e-07
8.35877e-07
8.38021e-07
8.40211e-07
8.42446e-07
8.44724e-07
8.47043e-07
8.494e-07
8.51794e-07
8.54223e-07
8.56681e-07
8.59165e-07
8.61673e-07
8.64201e-07
8.66745e-07
8.69303e-07
8.7187e-07
8.74444e-07
8.77022e-07
8.79606e-07
8.82187e-07
8.84713e-07
8.86992e-07
8.88678e-07
8.89319e-07
8.88695e-07
8.86861e-07
8.83881e-07
8.79991e-07
8.75431e-07
8.70241e-07
8.64589e-07
8.59201e-07
8.55586e-07
8.55198e-07
8.58058e-07
8.63133e-07
8.69197e-07
8.75779e-07
8.83437e-07
8.93813e-07
9.09552e-07
9.40064e-07
1.0261e-06
1.30687e-06
2.61281e-07
9.04305e-07
9.86226e-08
2.00982e-07
8.9564e-08
8.75101e-07
8.44745e-07
8.17505e-07
7.97298e-07
7.86753e-07
7.84634e-07
7.86265e-07
7.87848e-07
7.88548e-07
7.88889e-07
7.89258e-07
7.89708e-07
7.90198e-07
7.90708e-07
7.91238e-07
7.91791e-07
7.9237e-07
7.92975e-07
7.93608e-07
7.94269e-07
7.9496e-07
7.95683e-07
7.96438e-07
7.97229e-07
7.98056e-07
7.9892e-07
7.99824e-07
8.00768e-07
8.01752e-07
8.0278e-07
8.03854e-07
8.04977e-07
8.06147e-07
8.07363e-07
8.08625e-07
8.09932e-07
8.11287e-07
8.12692e-07
8.14149e-07
8.15658e-07
8.17221e-07
8.18836e-07
8.20503e-07
8.22222e-07
8.23993e-07
8.25816e-07
8.2769e-07
8.29615e-07
8.31591e-07
8.33617e-07
8.35691e-07
8.37814e-07
8.39982e-07
8.42196e-07
8.44453e-07
8.46752e-07
8.49089e-07
8.51464e-07
8.53873e-07
8.56312e-07
8.58779e-07
8.61269e-07
8.63781e-07
8.6631e-07
8.68851e-07
8.71403e-07
8.73963e-07
8.76527e-07
8.79096e-07
8.81664e-07
8.84167e-07
8.86415e-07
8.88053e-07
8.88659e-07
8.88055e-07
8.86298e-07
8.83436e-07
8.79704e-07
8.75343e-07
8.70414e-07
8.65023e-07
8.59712e-07
8.55805e-07
8.54866e-07
8.57254e-07
8.62132e-07
8.68172e-07
8.74832e-07
8.82385e-07
8.92588e-07
9.07746e-07
9.36881e-07
1.0129e-06
1.28817e-06
2.66991e-07
9.05029e-07
1.22145e-07
1.96594e-06
1.22786e-06
8.94949e-07
8.53968e-07
8.24795e-07
8.02307e-07
7.89085e-07
7.85049e-07
7.86165e-07
7.88001e-07
7.88943e-07
7.89335e-07
7.89676e-07
7.90104e-07
7.90585e-07
7.9109e-07
7.91613e-07
7.92159e-07
7.92729e-07
7.93326e-07
7.9395e-07
7.94601e-07
7.95282e-07
7.95994e-07
7.96739e-07
7.97517e-07
7.98331e-07
7.99183e-07
8.00072e-07
8.01002e-07
8.01971e-07
8.02983e-07
8.04041e-07
8.05148e-07
8.06304e-07
8.07508e-07
8.08757e-07
8.10051e-07
8.1139e-07
8.12776e-07
8.14211e-07
8.15699e-07
8.1724e-07
8.18832e-07
8.20478e-07
8.22175e-07
8.23924e-07
8.25725e-07
8.27578e-07
8.29481e-07
8.31435e-07
8.33439e-07
8.35491e-07
8.37592e-07
8.39739e-07
8.41931e-07
8.44167e-07
8.46445e-07
8.48763e-07
8.51117e-07
8.53507e-07
8.55928e-07
8.58377e-07
8.60851e-07
8.63345e-07
8.65857e-07
8.68383e-07
8.7092e-07
8.73465e-07
8.76016e-07
8.78573e-07
8.81125e-07
8.83606e-07
8.85822e-07
8.87387e-07
8.87952e-07
8.87366e-07
8.85679e-07
8.82931e-07
8.79362e-07
8.75206e-07
8.70538e-07
8.65433e-07
8.60254e-07
8.5612e-07
8.54648e-07
8.56523e-07
8.61149e-07
8.67163e-07
8.73914e-07
8.814e-07
8.91478e-07
9.06066e-07
9.34082e-07
1.00151e-06
1.26868e-06
2.70432e-07
9.05681e-07
1.60191e-06
1.90825e-06
3.14524e-07
9.21328e-07
8.65706e-07
8.33016e-07
8.0808e-07
7.92109e-07
7.85839e-07
7.86078e-07
7.88044e-07
7.89271e-07
7.89762e-07
7.90087e-07
7.90488e-07
7.90957e-07
7.91456e-07
7.91974e-07
7.92513e-07
7.93076e-07
7.93664e-07
7.94279e-07
7.94922e-07
7.95593e-07
7.96294e-07
7.97028e-07
7.97795e-07
7.98596e-07
7.99435e-07
8.00311e-07
8.01226e-07
8.02182e-07
8.03178e-07
8.04219e-07
8.05306e-07
8.06444e-07
8.07632e-07
8.08869e-07
8.10152e-07
8.11477e-07
8.12847e-07
8.14264e-07
8.15731e-07
8.17249e-07
8.18819e-07
8.20442e-07
8.22116e-07
8.23843e-07
8.25622e-07
8.27452e-07
8.29333e-07
8.31265e-07
8.33246e-07
8.35277e-07
8.37356e-07
8.3948e-07
8.41651e-07
8.43866e-07
8.46123e-07
8.4842e-07
8.50755e-07
8.53126e-07
8.55529e-07
8.5796e-07
8.60416e-07
8.62893e-07
8.65389e-07
8.67899e-07
8.7042e-07
8.72949e-07
8.75486e-07
8.7803e-07
8.80567e-07
8.8302e-07
8.85194e-07
8.86709e-07
8.87236e-07
8.86662e-07
8.85035e-07
8.82393e-07
8.7898e-07
8.75029e-07
8.70619e-07
8.65803e-07
8.60776e-07
8.56477e-07
8.54527e-07
8.55871e-07
8.60194e-07
8.66153e-07
8.72997e-07
8.80471e-07
8.90461e-07
9.0452e-07
9.31535e-07
9.91923e-07
1.24914e-06
2.74126e-07
9.06296e-07
1.45773e-06
1.17188e-06
1.90694e-07
4.82179e-07
8.76032e-07
8.42126e-07
8.14598e-07
7.95864e-07
7.8712e-07
7.86099e-07
7.88001e-07
7.89528e-07
7.90172e-07
7.905e-07
7.9087e-07
7.91324e-07
7.91817e-07
7.9233e-07
7.92863e-07
7.93418e-07
7.93999e-07
7.94606e-07
7.95239e-07
7.95901e-07
7.96593e-07
7.97316e-07
7.98071e-07
7.98861e-07
7.99687e-07
8.0055e-07
8.01452e-07
8.02393e-07
8.03375e-07
8.04397e-07
8.05463e-07
8.06577e-07
8.07744e-07
8.08963e-07
8.10232e-07
8.11545e-07
8.12902e-07
8.14304e-07
8.15752e-07
8.17249e-07
8.18796e-07
8.20396e-07
8.22047e-07
8.23752e-07
8.25507e-07
8.27315e-07
8.29173e-07
8.31081e-07
8.3304e-07
8.35048e-07
8.37105e-07
8.39208e-07
8.41357e-07
8.4355e-07
8.45786e-07
8.48062e-07
8.50378e-07
8.52729e-07
8.55113e-07
8.57525e-07
8.59964e-07
8.62423e-07
8.64902e-07
8.67396e-07
8.69901e-07
8.72415e-07
8.74938e-07
8.77469e-07
8.79992e-07
8.82421e-07
8.84546e-07
8.86003e-07
8.86487e-07
8.85921e-07
8.84348e-07
8.8181e-07
8.78555e-07
8.74816e-07
8.70672e-07
8.66127e-07
8.6127e-07
8.56857e-07
8.54468e-07
8.55278e-07
8.59258e-07
8.65126e-07
8.72067e-07
8.79574e-07
8.89516e-07
9.03122e-07
9.29253e-07
9.83584e-07
1.22952e-06
2.77705e-07
9.06863e-07
2.04483e-06
4.52472e-08
7.30592e-07
2.98659e-08
8.84408e-07
8.51816e-07
8.21686e-07
8.00322e-07
7.88975e-07
7.86334e-07
7.87914e-07
7.89714e-07
7.90566e-07
7.90926e-07
7.91266e-07
7.91699e-07
7.92185e-07
7.92693e-07
7.9322e-07
7.93769e-07
7.94342e-07
7.94941e-07
7.95565e-07
7.96218e-07
7.969e-07
7.97612e-07
7.98356e-07
7.99135e-07
7.99948e-07
8.00797e-07
8.01685e-07
8.02612e-07
8.03579e-07
8.04583e-07
8.05627e-07
8.06715e-07
8.07854e-07
8.09048e-07
8.10295e-07
8.11593e-07
8.12937e-07
8.14325e-07
8.15758e-07
8.17237e-07
8.18764e-07
8.20341e-07
8.21969e-07
8.2365e-07
8.25382e-07
8.27166e-07
8.29001e-07
8.30886e-07
8.32821e-07
8.34806e-07
8.3684e-07
8.3892e-07
8.41047e-07
8.43218e-07
8.45433e-07
8.47688e-07
8.49983e-07
8.52314e-07
8.54679e-07
8.57073e-07
8.59494e-07
8.61936e-07
8.64398e-07
8.66874e-07
8.69362e-07
8.71862e-07
8.74372e-07
8.76892e-07
8.794e-07
8.81803e-07
8.83866e-07
8.85263e-07
8.85702e-07
8.85143e-07
8.83617e-07
8.81187e-07
8.78101e-07
8.74582e-07
8.70687e-07
8.66405e-07
8.61724e-07
8.57246e-07
8.54475e-07
8.54752e-07
8.58344e-07
8.64089e-07
8.71111e-07
8.78686e-07
8.88634e-07
9.0187e-07
9.27159e-07
9.7655e-07
1.2101e-06
2.79991e-07
9.07302e-07
3.40851e-07
8.79845e-08
5.05167e-07
7.46903e-07
9.06116e-07
8.61169e-07
8.2905e-07
8.0537e-07
7.91439e-07
7.86881e-07
7.87838e-07
7.89831e-07
7.90939e-07
7.91371e-07
7.91687e-07
7.92092e-07
7.92567e-07
7.93071e-07
7.93592e-07
7.94134e-07
7.94699e-07
7.95289e-07
7.95905e-07
7.96548e-07
7.97219e-07
7.9792e-07
7.98653e-07
7.99419e-07
8.00219e-07
8.01054e-07
8.01927e-07
8.02839e-07
8.0379e-07
8.04778e-07
8.05802e-07
8.06864e-07
8.07972e-07
8.09134e-07
8.10352e-07
8.11626e-07
8.12952e-07
8.14327e-07
8.15746e-07
8.17209e-07
8.18717e-07
8.20274e-07
8.2188e-07
8.23537e-07
8.25246e-07
8.27006e-07
8.28817e-07
8.30678e-07
8.32589e-07
8.34551e-07
8.36561e-07
8.38618e-07
8.40723e-07
8.42872e-07
8.45064e-07
8.47298e-07
8.49572e-07
8.51883e-07
8.54228e-07
8.56602e-07
8.59003e-07
8.61428e-07
8.63873e-07
8.66332e-07
8.68804e-07
8.7129e-07
8.73789e-07
8.76297e-07
8.78789e-07
8.81166e-07
8.83188e-07
8.84527e-07
8.84916e-07
8.84351e-07
8.82852e-07
8.8054e-07
8.77636e-07
8.74333e-07
8.70677e-07
8.66627e-07
8.62127e-07
8.57643e-07
8.54555e-07
8.54306e-07
8.57454e-07
8.63023e-07
8.70117e-07
8.77798e-07
8.87798e-07
9.00758e-07
9.25245e-07
9.70738e-07
1.19101e-06
2.82945e-07
9.07661e-07
7.12822e-07
9.51071e-07
9.85082e-07
1.26228e-06
9.23143e-07
8.70548e-07
8.36502e-07
8.10849e-07
7.94492e-07
7.87823e-07
7.87834e-07
7.89879e-07
7.91274e-07
7.91829e-07
7.92133e-07
7.92505e-07
7.92964e-07
7.93462e-07
7.93977e-07
7.94511e-07
7.95067e-07
7.95648e-07
7.96254e-07
7.96886e-07
7.97547e-07
7.98236e-07
7.98957e-07
7.99709e-07
8.00495e-07
8.01316e-07
8.02173e-07
8.03069e-07
8.04003e-07
8.04974e-07
8.0598e-07
8.07021e-07
8.08103e-07
8.09232e-07
8.10416e-07
8.11658e-07
8.12957e-07
8.14311e-07
8.15713e-07
8.1716e-07
8.18653e-07
8.20191e-07
8.21777e-07
8.23412e-07
8.25097e-07
8.26833e-07
8.28621e-07
8.30458e-07
8.32346e-07
8.34282e-07
8.36269e-07
8.38302e-07
8.40384e-07
8.42511e-07
8.44681e-07
8.46893e-07
8.49145e-07
8.51433e-07
8.53756e-07
8.5611e-07
8.58492e-07
8.60899e-07
8.63326e-07
8.65771e-07
8.6823e-07
8.70703e-07
8.73191e-07
8.75686e-07
8.78158e-07
8.8051e-07
8.82478e-07
8.8375e-07
8.84088e-07
8.83526e-07
8.82082e-07
8.79884e-07
8.77156e-07
8.74064e-07
8.70634e-07
8.66802e-07
8.6249e-07
8.58054e-07
8.5472e-07
8.53962e-07
8.56607e-07
8.61928e-07
8.69067e-07
8.76883e-07
8.86988e-07
8.99758e-07
9.23561e-07
9.65954e-07
1.17284e-06
2.84651e-07
9.08054e-07
9.07665e-07
7.42709e-07
1.45276e-05
9.50663e-07
9.49111e-07
8.79875e-07
8.43919e-07
8.16636e-07
7.98092e-07
7.89218e-07
7.87966e-07
7.89862e-07
7.91542e-07
7.92277e-07
7.92596e-07
7.92931e-07
7.93366e-07
7.93854e-07
7.94364e-07
7.9489e-07
7.95437e-07
7.96007e-07
7.96602e-07
7.97224e-07
7.97872e-07
7.98549e-07
7.99257e-07
7.99995e-07
8.00767e-07
8.01572e-07
8.02413e-07
8.03291e-07
8.04208e-07
8.05162e-07
8.06152e-07
8.07177e-07
8.08239e-07
8.09341e-07
8.10492e-07
8.11698e-07
8.12964e-07
8.14287e-07
8.15665e-07
8.17093e-07
8.18568e-07
8.2009e-07
8.21657e-07
8.23272e-07
8.24934e-07
8.26647e-07
8.28411e-07
8.30225e-07
8.32089e-07
8.34001e-07
8.35963e-07
8.37973e-07
8.4003e-07
8.42134e-07
8.44282e-07
8.46471e-07
8.48701e-07
8.50967e-07
8.53266e-07
8.55597e-07
8.57959e-07
8.60348e-07
8.62761e-07
8.65192e-07
8.67639e-07
8.70101e-07
8.72578e-07
8.75061e-07
8.77511e-07
8.79828e-07
8.81734e-07
8.8293e-07
8.83222e-07
8.82672e-07
8.8128e-07
8.7921e-07
8.76672e-07
8.73785e-07
8.70552e-07
8.66918e-07
8.62803e-07
8.58472e-07
8.5497e-07
8.53734e-07
8.55827e-07
8.60825e-07
8.67961e-07
8.75916e-07
8.86179e-07
8.98871e-07
9.22094e-07
9.62006e-07
1.15672e-06
2.8607e-07
9.08416e-07
1.01459e-06
1.36445e-06
9.82931e-08
7.05518e-07
9.84762e-07
8.90209e-07
8.51449e-07
8.22712e-07
8.02218e-07
7.91114e-07
7.88305e-07
7.89795e-07
7.91712e-07
7.92684e-07
7.93057e-07
7.93359e-07
7.93763e-07
7.94238e-07
7.9474e-07
7.95258e-07
7.95795e-07
7.96355e-07
7.96939e-07
7.97549e-07
7.98185e-07
7.98849e-07
7.99543e-07
8.00267e-07
8.01024e-07
8.01814e-07
8.02638e-07
8.03499e-07
8.04397e-07
8.05333e-07
8.06308e-07
8.0732e-07
8.08368e-07
8.09452e-07
8.10578e-07
8.11753e-07
8.12982e-07
8.14269e-07
8.15613e-07
8.17014e-07
8.18467e-07
8.19969e-07
8.21518e-07
8.23112e-07
8.24753e-07
8.26444e-07
8.28185e-07
8.29976e-07
8.31817e-07
8.33706e-07
8.35644e-07
8.3763e-07
8.39663e-07
8.41742e-07
8.43866e-07
8.46033e-07
8.4824e-07
8.50482e-07
8.52758e-07
8.55067e-07
8.57408e-07
8.59781e-07
8.62178e-07
8.64597e-07
8.67033e-07
8.69484e-07
8.71948e-07
8.74416e-07
8.76845e-07
8.79114e-07
8.80951e-07
8.82073e-07
8.82325e-07
8.81792e-07
8.80467e-07
8.78532e-07
8.76181e-07
8.73486e-07
8.70438e-07
8.66976e-07
8.6307e-07
8.58897e-07
8.553e-07
8.53627e-07
8.55135e-07
8.59717e-07
8.66793e-07
8.7489e-07
8.85362e-07
8.98063e-07
9.20871e-07
9.58829e-07
1.14321e-06
2.88588e-07
9.08716e-07
1.05242e-06
1.14242e-06
1.40329e-07
1.92959e-06
1.13487e-06
9.02395e-07
8.5946e-07
8.29243e-07
8.06915e-07
7.93558e-07
7.88923e-07
7.89713e-07
7.9177e-07
7.93021e-07
7.935e-07
7.93783e-07
7.94149e-07
7.94604e-07
7.95099e-07
7.95609e-07
7.96137e-07
7.96686e-07
7.97258e-07
7.97856e-07
7.9848e-07
7.99132e-07
7.99812e-07
8.00522e-07
8.01264e-07
8.02038e-07
8.02846e-07
8.0369e-07
8.04569e-07
8.05488e-07
8.06446e-07
8.07444e-07
8.08479e-07
8.09551e-07
8.10661e-07
8.11813e-07
8.13013e-07
8.14263e-07
8.1557e-07
8.16935e-07
8.18358e-07
8.19834e-07
8.21361e-07
8.22934e-07
8.24554e-07
8.26222e-07
8.2794e-07
8.29709e-07
8.31527e-07
8.33394e-07
8.35309e-07
8.3727e-07
8.39278e-07
8.41333e-07
8.43433e-07
8.45577e-07
8.4776e-07
8.49979e-07
8.52232e-07
8.54519e-07
8.5684e-07
8.59196e-07
8.61581e-07
8.63989e-07
8.66413e-07
8.68849e-07
8.71298e-07
8.7375e-07
8.76154e-07
8.78383e-07
8.80151e-07
8.81203e-07
8.81422e-07
8.80887e-07
8.79639e-07
8.77848e-07
8.75676e-07
8.73163e-07
8.70271e-07
8.66981e-07
8.63292e-07
8.59318e-07
8.55702e-07
8.53645e-07
8.5455e-07
8.58647e-07
8.65581e-07
8.73796e-07
8.84518e-07
8.97284e-07
9.19899e-07
9.56344e-07
1.13267e-06
2.89027e-07
9.08949e-07
8.70241e-08
7.47231e-07
1.65141e-06
2.04624e-06
8.4341e-07
9.15476e-07
8.68641e-07
8.36538e-07
8.12293e-07
7.96612e-07
7.89903e-07
7.89674e-07
7.91717e-07
7.93269e-07
7.93911e-07
7.942e-07
7.94526e-07
7.94957e-07
7.9544e-07
7.95944e-07
7.96462e-07
7.97001e-07
7.97563e-07
7.98149e-07
7.98761e-07
7.994e-07
8.00067e-07
8.00763e-07
8.0149e-07
8.02249e-07
8.03041e-07
8.03867e-07
8.04729e-07
8.0563e-07
8.0657e-07
8.07551e-07
8.08572e-07
8.09631e-07
8.1073e-07
8.11867e-07
8.13044e-07
8.14266e-07
8.15539e-07
8.16868e-07
8.18254e-07
8.19698e-07
8.21195e-07
8.22743e-07
8.2434e-07
8.25985e-07
8.27679e-07
8.29423e-07
8.31218e-07
8.33063e-07
8.34955e-07
8.36892e-07
8.38876e-07
8.40906e-07
8.42981e-07
8.451e-07
8.47261e-07
8.49458e-07
8.51689e-07
8.53955e-07
8.56258e-07
8.58596e-07
8.60968e-07
8.63363e-07
8.65774e-07
8.68194e-07
8.70627e-07
8.7306e-07
8.75436e-07
8.77608e-07
8.79301e-07
8.80288e-07
8.80485e-07
8.79965e-07
8.78809e-07
8.77168e-07
8.75167e-07
8.72806e-07
8.70056e-07
8.66931e-07
8.63467e-07
8.59723e-07
8.56147e-07
8.53776e-07
8.54088e-07
8.57625e-07
8.64331e-07
8.72624e-07
8.83621e-07
8.9655e-07
9.19127e-07
9.54414e-07
1.12723e-06
2.91031e-07
9.09294e-07
3.01783e-06
2.39514e-05
2.21056e-06
1.45953e-06
9.87642e-07
9.25612e-07
8.79602e-07
8.44894e-07
8.18474e-07
8.00353e-07
7.91339e-07
7.89756e-07
7.91577e-07
7.93417e-07
7.94284e-07
7.94614e-07
7.94904e-07
7.95302e-07
7.95772e-07
7.96268e-07
7.96779e-07
7.97307e-07
7.97858e-07
7.98433e-07
7.99034e-07
7.9966e-07
8.00314e-07
8.00997e-07
8.01709e-07
8.02453e-07
8.03229e-07
8.04038e-07
8.04883e-07
8.05765e-07
8.06686e-07
8.07648e-07
8.0865e-07
8.09694e-07
8.10778e-07
8.11902e-07
8.13065e-07
8.14267e-07
8.15514e-07
8.16811e-07
8.18162e-07
8.19569e-07
8.21032e-07
8.22549e-07
8.24119e-07
8.25738e-07
8.27405e-07
8.29123e-07
8.30892e-07
8.32712e-07
8.34581e-07
8.36495e-07
8.38455e-07
8.4046e-07
8.42509e-07
8.44604e-07
8.46743e-07
8.48919e-07
8.51131e-07
8.53377e-07
8.55661e-07
8.57984e-07
8.60342e-07
8.62722e-07
8.65115e-07
8.67517e-07
8.6993e-07
8.72341e-07
8.74689e-07
8.76797e-07
8.78414e-07
8.79344e-07
8.79531e-07
8.79054e-07
8.7799e-07
8.7649e-07
8.74638e-07
8.72404e-07
8.69784e-07
8.66827e-07
8.63593e-07
8.60094e-07
8.56616e-07
8.54015e-07
8.53771e-07
8.56693e-07
8.63067e-07
8.71374e-07
8.8267e-07
8.95792e-07
9.18606e-07
9.52951e-07
1.12531e-06
2.90787e-07
9.09573e-07
2.00964e-06
3.23205e-07
2.27956e-07
1.89931e-06
1.07846e-06
9.52982e-07
8.9186e-07
8.54226e-07
8.25494e-07
8.04868e-07
7.9335e-07
7.90063e-07
7.91389e-07
7.93457e-07
7.94605e-07
7.95026e-07
7.9529e-07
7.9565e-07
7.96101e-07
7.96588e-07
7.97091e-07
7.97611e-07
7.98151e-07
7.98715e-07
7.99303e-07
7.99917e-07
8.00558e-07
8.01227e-07
8.01925e-07
8.02653e-07
8.03413e-07
8.04205e-07
8.05033e-07
8.05897e-07
8.06799e-07
8.07739e-07
8.08721e-07
8.09745e-07
8.1081e-07
8.11918e-07
8.13066e-07
8.14254e-07
8.15482e-07
8.16756e-07
8.18077e-07
8.19451e-07
8.20878e-07
8.22361e-07
8.23899e-07
8.2549e-07
8.27128e-07
8.28816e-07
8.30555e-07
8.32346e-07
8.34189e-07
8.36079e-07
8.38016e-07
8.39995e-07
8.4202e-07
8.4409e-07
8.46207e-07
8.48363e-07
8.50557e-07
8.52783e-07
8.55048e-07
8.57354e-07
8.59696e-07
8.62059e-07
8.64432e-07
8.66813e-07
8.69206e-07
8.71597e-07
8.73913e-07
8.75971e-07
8.77528e-07
8.78412e-07
8.78592e-07
8.7813e-07
8.77165e-07
8.75802e-07
8.74077e-07
8.71953e-07
8.69461e-07
8.66676e-07
8.63672e-07
8.60426e-07
8.57095e-07
8.54345e-07
8.53599e-07
8.55869e-07
8.6182e-07
8.70049e-07
8.81638e-07
8.95003e-07
9.18273e-07
9.51888e-07
1.12814e-06
2.92386e-07
9.09837e-07
5.61166e-09
1.82135e-08
4.5816e-07
3.59282e-07
9.26579e-07
9.93729e-07
9.05062e-07
8.63813e-07
8.33162e-07
8.10219e-07
7.96082e-07
7.90727e-07
7.9121e-07
7.93386e-07
7.94857e-07
7.95429e-07
7.95688e-07
7.96005e-07
7.9643e-07
7.96907e-07
7.97403e-07
7.97913e-07
7.98442e-07
7.98995e-07
7.99571e-07
8.00173e-07
8.008e-07
8.01455e-07
8.02138e-07
8.02851e-07
8.03594e-07
8.04369e-07
8.0518e-07
8.06026e-07
8.06908e-07
8.07828e-07
8.08789e-07
8.0979e-07
8.10833e-07
8.11919e-07
8.13049e-07
8.14221e-07
8.15434e-07
8.1669e-07
8.17989e-07
8.19335e-07
8.2073e-07
8.2218e-07
8.23686e-07
8.25246e-07
8.26854e-07
8.2851e-07
8.30215e-07
8.31973e-07
8.33786e-07
8.3565e-07
8.37562e-07
8.39518e-07
8.41517e-07
8.43562e-07
8.45657e-07
8.47794e-07
8.4997e-07
8.52176e-07
8.5442e-07
8.56706e-07
8.59029e-07
8.61371e-07
8.63723e-07
8.66083e-07
8.68456e-07
8.70824e-07
8.73108e-07
8.75114e-07
8.76608e-07
8.77448e-07
8.77624e-07
8.77219e-07
8.76352e-07
8.75102e-07
8.73472e-07
8.71448e-07
8.69085e-07
8.66484e-07
8.63707e-07
8.60707e-07
8.57557e-07
8.54749e-07
8.53584e-07
8.5519e-07
8.60612e-07
8.68659e-07
8.80518e-07
8.94133e-07
9.18131e-07
9.51078e-07
1.13428e-06
2.94177e-07
7.31079e-08
1.58221e-08
7.48098e-05
3.47514e-06
9.2761e-07
1.10968e-06
9.18277e-07
8.72762e-07
8.41131e-07
8.16365e-07
7.99638e-07
7.91893e-07
7.91125e-07
7.93207e-07
7.95014e-07
7.95807e-07
7.96097e-07
7.96371e-07
7.96761e-07
7.97224e-07
7.97712e-07
7.98213e-07
7.98732e-07
7.99273e-07
7.99837e-07
8.00426e-07
8.0104e-07
8.01681e-07
8.02349e-07
8.03046e-07
8.03772e-07
8.04531e-07
8.05324e-07
8.06151e-07
8.07013e-07
8.07913e-07
8.08853e-07
8.09832e-07
8.10851e-07
8.11914e-07
8.13021e-07
8.14172e-07
8.15367e-07
8.16605e-07
8.17885e-07
8.1921e-07
8.2058e-07
8.22001e-07
8.23476e-07
8.25005e-07
8.26582e-07
8.28206e-07
8.29877e-07
8.31601e-07
8.3338e-07
8.35214e-07
8.37099e-07
8.39029e-07
8.41003e-07
8.43025e-07
8.45097e-07
8.47214e-07
8.49368e-07
8.51551e-07
8.53773e-07
8.56038e-07
8.58338e-07
8.60657e-07
8.62985e-07
8.65324e-07
8.67679e-07
8.70027e-07
8.72276e-07
8.74228e-07
8.7566e-07
8.76463e-07
8.76644e-07
8.76293e-07
8.75519e-07
8.74367e-07
8.72818e-07
8.70887e-07
8.68667e-07
8.66255e-07
8.63696e-07
8.6093e-07
8.57991e-07
8.5521e-07
8.53718e-07
8.54681e-07
8.59484e-07
8.6723e-07
8.79299e-07
8.93175e-07
9.18082e-07
9.50662e-07
1.14277e-06
2.97117e-07
4.68755e-06
3.18882e-06
7.84534e-07
6.3901e-07
1.36242e-06
9.43906e-07
8.84839e-07
8.49911e-07
8.22993e-07
8.03817e-07
7.9361e-07
7.91256e-07
7.92966e-07
7.95059e-07
7.96137e-07
7.96507e-07
7.96747e-07
7.97095e-07
7.97538e-07
7.98017e-07
7.98511e-07
7.99019e-07
7.99548e-07
8.001e-07
8.00676e-07
8.01276e-07
8.01903e-07
8.02556e-07
8.03237e-07
8.03946e-07
8.04689e-07
8.05464e-07
8.06271e-07
8.07114e-07
8.07995e-07
8.08913e-07
8.09869e-07
8.10865e-07
8.11904e-07
8.12987e-07
8.14114e-07
8.15285e-07
8.16501e-07
8.17762e-07
8.19067e-07
8.20417e-07
8.21813e-07
8.2326e-07
8.24759e-07
8.26307e-07
8.27901e-07
8.29541e-07
8.31231e-07
8.32976e-07
8.34778e-07
8.36633e-07
8.38535e-07
8.40483e-07
8.4248e-07
8.4453e-07
8.46624e-07
8.48752e-07
8.50909e-07
8.53106e-07
8.55348e-07
8.57622e-07
8.59914e-07
8.62219e-07
8.6454e-07
8.66877e-07
8.69203e-07
8.71417e-07
8.73311e-07
8.74683e-07
8.75453e-07
8.75645e-07
8.75357e-07
8.7467e-07
8.73592e-07
8.72107e-07
8.70274e-07
8.6821e-07
8.6599e-07
8.63633e-07
8.61096e-07
8.58385e-07
8.55701e-07
8.53981e-07
8.54351e-07
8.58475e-07
8.65781e-07
8.77981e-07
8.92097e-07
9.18098e-07
9.50589e-07
1.15242e-06
3.02275e-07
7.3236e-07
8.23944e-08
1.0626e-06
9.21935e-07
8.6321e-07
8.29413e-07
8.07766e-07
7.95674e-07
7.91743e-07
7.92783e-07
7.95003e-07
7.96392e-07
7.96904e-07
7.97135e-07
7.97436e-07
7.9785e-07
7.98319e-07
7.98804e-07
7.99303e-07
7.9982e-07
8.0036e-07
8.00922e-07
8.01509e-07
8.02121e-07
8.0276e-07
8.03424e-07
8.04117e-07
8.04843e-07
8.056e-07
8.06388e-07
8.07212e-07
8.08073e-07
8.08969e-07
8.09903e-07
8.10877e-07
8.11892e-07
8.1295e-07
8.14051e-07
8.15196e-07
8.16386e-07
8.17623e-07
8.18906e-07
8.20234e-07
8.21607e-07
8.23028e-07
8.24499e-07
8.26019e-07
8.27587e-07
8.29199e-07
8.3086e-07
8.32572e-07
8.34341e-07
8.36164e-07
8.38036e-07
8.39956e-07
8.41929e-07
8.43954e-07
8.46022e-07
8.4812e-07
8.50249e-07
8.5242e-07
8.54636e-07
8.56882e-07
8.59146e-07
8.61427e-07
8.6373e-07
8.66051e-07
8.68355e-07
8.70529e-07
8.72361e-07
8.73675e-07
8.74417e-07
8.74632e-07
8.74407e-07
8.73788e-07
8.72755e-07
8.71328e-07
8.69614e-07
8.67722e-07
8.65691e-07
8.63521e-07
8.61192e-07
8.58719e-07
8.5619e-07
8.54341e-07
8.54197e-07
8.57626e-07
8.64366e-07
8.76588e-07
8.9087e-07
9.18114e-07
9.50982e-07
1.16051e-06
3.086e-07
9.14025e-06
1.82637e-06
1.04242e-06
8.88336e-07
8.34998e-07
8.10365e-07
7.97697e-07
7.92706e-07
7.92838e-07
7.94899e-07
7.96546e-07
7.97262e-07
7.97527e-07
7.97787e-07
7.98164e-07
7.98616e-07
7.99094e-07
7.99584e-07
8.00089e-07
8.00616e-07
8.01166e-07
8.01739e-07
8.02336e-07
8.0296e-07
8.03607e-07
8.04285e-07
8.04995e-07
8.05732e-07
8.06501e-07
8.07306e-07
8.08146e-07
8.0902e-07
8.09932e-07
8.10884e-07
8.11877e-07
8.1291e-07
8.13984e-07
8.15102e-07
8.16265e-07
8.17475e-07
8.18732e-07
8.20034e-07
8.21382e-07
8.22777e-07
8.24221e-07
8.25714e-07
8.27255e-07
8.28843e-07
8.30477e-07
8.32161e-07
8.33898e-07
8.35687e-07
8.37527e-07
8.39419e-07
8.41367e-07
8.43365e-07
8.45402e-07
8.47468e-07
8.49567e-07
8.51714e-07
8.53902e-07
8.56118e-07
8.58354e-07
8.60613e-07
8.62898e-07
8.65201e-07
8.67482e-07
8.6961e-07
8.71373e-07
8.72632e-07
8.73355e-07
8.73599e-07
8.73432e-07
8.72854e-07
8.71848e-07
8.70492e-07
8.68915e-07
8.67199e-07
8.65348e-07
8.63355e-07
8.6123e-07
8.58993e-07
8.56657e-07
8.54772e-07
8.54208e-07
8.56954e-07
8.63042e-07
8.75163e-07
8.89501e-07
9.18058e-07
9.51899e-07
1.16621e-06
3.16915e-07
7.93157e-05
1.25356e-06
9.19678e-07