/*--------------------------------*- C++ -*----------------------------------*\
  =========                 |
  \\      /  F ield         | OpenFOAM: The Open Source CFD Toolbox
   \\    /   O peration     | Website:  https://openfoam.org
    \\  /    A nd           | Version:  9
     \\/     M anipulation  |
\*---------------------------------------------------------------------------*/
FoamFile
{
    format      ascii;
    class       volScalarField;
    location    "2250";
    object      omega;
}
// * * * * * * * * * * * * * * * * * * * * * * * * * * * * * * * * * * * * * //

dimensions      [0 0 -1 0 0 0 0];

internalField   nonuniform List<scalar> 
13538
(
10.1651
0.0980127
0.0667224
0.111625
0.761422
1.2458
1.44554
1.52301
1.59012
1.67429
1.76964
1.87046
1.97605
2.08724
2.2045
2.32823
2.4588
2.59654
2.74191
2.89531
3.05717
3.22797
3.40818
3.59834
3.79896
4.0106
4.23385
4.46928
4.71756
4.97942
5.25555
5.54663
5.8535
6.17692
6.51777
6.87702
7.25538
7.65396
8.07368
8.51562
8.98094
9.47069
9.98599
10.5282
11.0983
11.6977
12.3277
12.9899
13.6855
14.4158
15.1824
15.9865
16.8301
17.7144
18.6413
19.6125
20.6289
21.6928
22.8056
23.9683
25.1824
26.4497
27.7712
29.1487
30.5837
32.0781
33.6334
35.2518
36.9342
38.6803
40.4913
42.368
44.3134
46.3302
48.4232
50.6017
52.889
55.3199
57.9221
60.7007
63.6485
66.7544
70.0066
73.3942
76.8776
80.3726
83.8099
87.1827
90.5327
93.8893
97.2534
100.593
103.87
106.996
109.95
113.072
118.229
132.229
156.739
13.0371
0.208932
0.0575023
0.0815982
0.69686
1.22716
1.47002
1.56331
1.63118
1.71417
1.81045
1.91335
2.02114
2.13441
2.25382
2.37977
2.51261
2.65273
2.80052
2.95642
3.12087
3.29432
3.47725
3.67017
3.87362
4.08813
4.3143
4.55272
4.80407
5.06897
5.34811
5.64224
5.95213
6.27855
6.62234
6.98433
7.36549
7.76667
8.18894
8.63327
9.10069
9.59231
10.1092
10.6526
11.2237
11.8237
12.454
13.1157
13.8102
14.539
15.3033
16.1046
16.9443
17.824
18.7451
19.709
20.7171
21.7709
22.8717
24.0209
25.2202
26.4708
27.7745
29.1317
30.5455
32.0178
33.5492
35.14
36.7918
38.505
40.2822
42.1243
44.0338
46.0124
48.0624
50.1948
52.432
54.8105
57.3535
60.0655
62.9451
65.9799
69.1568
72.471
75.8957
79.3575
82.7787
86.1419
89.4864
92.8408
96.2215
99.5981
102.937
106.15
109.201
112.321
117.163
129.148
147.596
15.4446
0.874834
0.0142926
0.0228749
0.539878
1.12318
1.43197
1.54991
1.61684
1.69424
1.78761
1.88939
1.99618
2.1082
2.22619
2.35065
2.48193
2.62041
2.76647
2.92055
3.08309
3.25453
3.43535
3.62607
3.8272
4.0393
4.26294
4.49871
4.74726
5.00925
5.28537
5.57635
5.88294
6.20593
6.54615
6.90445
7.28175
7.67894
8.09701
8.537
8.9999
9.48684
9.99897
10.5374
11.1034
11.6981
12.3228
12.9789
13.6676
14.3904
15.1486
15.9437
16.7772
17.6504
18.5647
19.5218
20.5231
21.5701
22.6642
23.8069
24.9996
26.2437
27.5409
28.8919
30.2982
31.7611
33.2818
34.8611
36.501
38.2009
39.9652
41.7962
43.6932
45.6568
47.6899
49.805
52.0276
54.3882
56.9089
59.5943
62.4435
65.4479
68.5886
71.8654
75.2602
78.7086
82.1336
85.5041
88.8555
92.226
95.6337
99.0551
102.456
105.749
108.891
112.035
116.729
127.472
140.798
17.5114
1.08646
0.0125972
0.0326866
0.420447
1.01908
1.39246
1.54456
1.61605
1.68877
1.77898
1.87993
1.98647
2.09803
2.2154
2.33916
2.46971
2.6074
2.75264
2.90583
3.06742
3.23785
3.41761
3.60718
3.8071
4.0179
4.24017
4.47448
4.72149
4.98183
5.2562
5.54531
5.84992
6.17082
6.50883
6.86477
7.23956
7.6341
8.04937
8.48635
8.9461
9.42969
9.93828
10.4729
11.0349
11.6253
12.2456
12.897
13.5808
14.2983
15.051
15.8402
16.6675
17.5342
18.4418
19.3918
20.3855
21.4248
22.5108
23.645
24.8286
26.0634
27.3509
28.6921
30.0881
31.5405
33.051
34.6201
36.2493
37.9398
39.6918
41.5063
43.3855
45.3287
47.3403
49.4363
51.6378
53.9728
56.4647
59.1197
61.9364
64.9023
68.0018
71.237
74.5946
78.0187
81.4378
84.8102
88.1639
91.5418
94.9677
98.4254
101.885
105.263
108.509
111.691
116.239
125.951
135.344
19.3431
0.46205
0.0686149
0.024721
0.315133
0.902249
1.33553
1.53002
1.61156
1.68034
1.76635
1.8657
1.9717
2.08264
2.19915
2.32195
2.45149
2.58811
2.73221
2.8842
3.04451
3.21359
3.39191
3.57998
3.7783
3.98741
4.20789
4.44032
4.68533
4.94357
5.21572
5.5025
5.80465
6.12293
6.45819
6.81126
7.18302
7.57437
7.98627
8.41973
8.87575
9.3554
9.85981
10.3901
10.9475
11.5332
12.1484
12.7945
13.4727
14.1845
14.9312
15.7141
16.5347
17.3947
18.2951
19.2377
20.2237
21.2548
22.3324
23.4579
24.633
25.8586
27.1364
28.4678
29.8539
31.2965
32.7967
34.3546
35.9726
37.6515
39.3925
41.1964
43.0642
44.9968
46.9981
49.0798
51.2623
53.5748
56.0423
58.6714
61.4561
64.3859
67.4512
70.6513
73.9741
77.3754
80.7887
84.1671
87.5231
90.9048
94.3461
97.8355
101.354
104.81
108.162
111.392
115.835
124.768
131.378
20.9866
0.785408
0.0963427
0.00105281
0.22959
0.782968
1.26485
1.50789
1.6063
1.67317
1.75436
1.8514
1.95669
2.06706
2.18275
2.30458
2.43308
2.56862
2.71156
2.86233
3.02134
3.18904
3.36591
3.55243
3.74912
3.95651
4.17516
4.40567
4.64864
4.90473
5.17461
5.45899
5.7586
6.07422
6.40667
6.75676
7.12541
7.5135
7.92193
8.35172
8.80389
9.27948
9.77963
10.3054
10.8581
11.4388
12.0488
12.6894
13.3619
14.0676
14.808
15.5844
16.3981
17.2507
18.1437
19.0784
20.0562
21.0789
22.1478
23.2642
24.4297
25.6456
26.9136
28.2345
29.6103
31.0415
32.5304
34.0776
35.6837
37.3509
39.0796
40.8711
42.7271
44.6477
46.6358
48.705
50.8748
53.177
55.6283
58.2316
60.985
63.8823
66.9168
70.0789
73.3664
76.7477
80.1566
83.5374
86.8985
90.2844
93.7375
97.2589
100.825
104.357
107.819
111.118
115.493
123.785
127.876
22.4791
1.07714
0.122015
0.01608
0.160558
0.664734
1.18104
1.47559
1.598
1.66608
1.74224
1.8361
1.9403
2.05007
2.16493
2.28574
2.41312
2.54748
2.68919
2.83864
2.99626
3.16249
3.3378
3.52268
3.71762
3.92317
4.13988
4.36832
4.60913
4.86293
5.13039
5.41222
5.70915
6.02192
6.35135
6.69827
7.0636
7.44817
7.85294
8.27887
8.72699
9.19829
9.69387
10.2149
10.7626
11.3381
11.9426
12.5774
13.2438
13.9432
14.677
15.4464
16.2528
17.0979
17.9829
18.9095
19.8789
20.8928
21.9524
23.0592
24.2148
25.4207
26.6783
27.9887
29.3533
30.7734
32.2506
33.7854
35.3801
37.0348
38.7515
40.5299
42.3729
44.2803
46.256
48.3125
50.4715
52.7611
55.1975
57.7832
60.5175
63.3893
66.3901
69.516
72.7685
76.1258
79.5277
82.9205
86.2921
89.6844
93.1496
96.6917
100.306
103.915
107.485
110.856
115.191
122.988
125.404
23.8478
1.56263
0.164661
0.0135475
0.10526
0.551081
1.08633
1.43221
1.5854
1.65887
1.73045
1.82029
1.92288
2.03194
2.146
2.26576
2.39196
2.52508
2.66548
2.81355
2.96971
3.13439
3.30806
3.4912
3.68431
3.88792
4.10259
4.32888
4.5674
4.8188
5.08372
5.36287
5.65697
5.96678
6.29305
6.63661
6.99837
7.37923
7.78013
8.202
8.64582
9.11264
9.60352
10.1196
10.662
11.232
11.8307
12.4595
13.1196
13.8123
14.5391
15.3012
16.1002
16.9374
17.8141
18.7321
19.6925
20.6971
21.7472
22.8443
23.9896
25.1848
26.4316
27.7306
29.0838
30.492
31.9569
33.4797
35.0611
36.7026
38.4061
40.1718
42.0007
43.8948
45.8579
47.9031
50.0504
52.3283
54.7505
57.3166
60.0297
62.8779
65.8548
68.9554
72.1761
75.5032
78.8957
82.2959
85.6826
89.0899
92.5652
96.1364
99.7961
103.474
107.155
110.612
114.942
122.311
122.893
25.1152
2.24046
0.0274992
0.0118267
0.0608656
0.444072
0.983182
1.37711
1.56687
1.65078
1.71902
1.80416
1.90448
2.01265
2.12589
2.24458
2.36957
2.50138
2.64041
2.78702
2.94164
3.10469
3.27664
3.45796
3.64915
3.85073
4.06324
4.28727
4.52341
4.77229
5.03456
5.3109
5.60205
5.90873
6.23168
6.5717
6.9297
7.3066
7.70336
8.1209
8.56024
9.02238
9.5083
10.0192
10.5562
11.1204
11.7131
12.3354
12.9889
13.6747
14.3943
15.1488
15.9398
16.7688
17.637
18.5461
19.4972
20.4921
21.532
22.6187
23.7536
24.9376
26.1727
27.4599
28.8011
30.1971
31.6494
33.159
34.727
36.3554
38.0452
39.797
41.6125
43.4922
45.4413
47.4737
49.6123
51.8784
54.284
56.8302
59.5201
62.3453
65.2974
68.3715
71.567
74.8757
78.2599
81.6638
85.0629
88.4826
91.9768
95.5785
99.2846
103.036
106.826
110.378
114.734
121.733
121.59
26.2898
0.383039
0.0407631
0.00710469
0.0261264
0.345616
0.874147
1.31019
1.54092
1.64085
1.7079
1.78799
1.88528
1.99225
2.10466
2.22229
2.346
2.47644
2.61403
2.75912
2.91212
3.07347
3.24362
3.42303
3.61221
3.81167
4.02194
4.2436
4.47724
4.72348
4.98296
5.25638
5.54445
5.84787
6.16736
6.5037
6.85775
7.23047
7.62281
8.03579
8.47035
8.92751
9.40829
9.91371
10.445
11.0032
11.5896
12.2055
12.852
13.5305
14.2425
14.9892
15.7719
16.5922
17.4515
18.3512
19.2925
20.2774
21.3069
22.3828
23.5063
24.6789
25.9021
27.1772
28.5059
29.8887
31.3275
32.824
34.3783
35.992
37.6674
39.405
41.206
43.0712
45.0064
47.0271
49.1544
51.4078
53.7963
56.3222
58.9891
61.7895
64.7145
67.7609
70.9282
74.218
77.5968
81.0146
84.4305
87.864
91.3743
95.0052
98.7627
102.589
106.49
110.147
114.578
121.225
120.37
27.3898
0.862624
0.103204
0.0178383
0.0100768
0.259044
0.761784
1.23176
1.50619
1.6279
1.69679
1.77195
1.86547
1.9708
2.08231
2.19888
2.32128
2.45029
2.58636
2.72986
2.88118
3.04075
3.20902
3.38644
3.57352
3.77075
3.97869
4.19787
4.4289
4.67239
4.92898
5.19933
5.48418
5.7842
6.10007
6.43259
6.78259
7.15096
7.53866
7.94674
8.37628
8.82819
9.30353
9.80328
10.3286
10.8805
11.4604
12.0693
12.7087
13.3797
14.0838
14.8222
15.5963
16.4076
17.2575
18.1476
19.0789
20.0534
21.0719
22.1365
23.2483
24.4091
25.6198
26.8819
28.197
29.5668
30.9915
32.4735
34.0138
35.6135
37.2743
38.9967
40.7821
42.6319
44.5537
46.5621
48.6777
50.918
53.2869
55.7911
58.4343
61.2086
64.1047
67.1217
70.2626
73.527
76.9005
80.329
83.7671
87.2218
90.748
94.4113
98.2192
102.126
106.151
109.926
114.464
120.792
119.267
28.416
1.07397
0.0623831
0.0103989
0.0159451
0.187535
0.64912
1.14261
1.46155
1.61063
1.68519
1.75614
1.84522
1.94836
2.05881
2.17432
2.29541
2.42292
2.55741
2.69925
2.84881
3.00652
3.17281
3.34816
3.53304
3.72796
3.93345
4.15005
4.37836
4.61897
4.87252
5.13969
5.42116
5.71761
6.02975
6.35833
6.70416
7.06808
7.45101
7.85403
8.2782
8.72457
9.19408
9.68785
10.207
10.7525
11.3255
11.9273
12.5592
13.2223
13.9182
14.6481
15.4133
16.2153
17.0554
17.9352
18.856
19.8195
20.8268
21.8799
22.9796
24.1277
25.3252
26.5738
27.8754
29.2313
30.6419
32.1092
33.6345
35.2193
36.8654
38.5725
40.3423
42.1757
44.0822
46.0783
48.1822
50.4064
52.7561
55.237
57.8545
60.601
63.4682
66.4542
69.5645
72.8077
76.1681
79.6032
83.0641
86.5464
90.0986
93.7903
97.6464
101.638
105.788
109.7
114.393
120.414
118.895
29.3833
1.27634
0.137471
0.0193399
0.0100552
0.130258
0.540057
1.04411
1.40617
1.58771
1.6724
1.74053
1.82469
1.925
2.03414
2.14858
2.26834
2.3943
2.52713
2.66723
2.81495
2.97072
3.13496
3.30813
3.49072
3.68322
3.88615
4.10006
4.32552
4.56313
4.81352
5.07735
5.35529
5.64802
5.95626
6.2808
6.62236
6.98173
7.3598
7.75763
8.17629
8.61682
9.08029
9.56774
10.0803
10.6189
11.1849
11.7793
12.4034
13.0584
13.7457
14.4667
15.2226
16.0149
16.845
17.7145
18.6243
19.5764
20.572
21.6127
22.6998
23.8347
25.019
26.254
27.5411
28.8818
30.2775
31.7301
33.2403
34.8101
36.4405
38.1318
39.8851
41.7018
43.5928
45.5752
47.6646
49.8715
52.1993
54.6581
57.25
59.9677
62.8041
65.7585
68.8381
72.0531
75.3992
78.8369
82.3165
85.8268
89.408
93.1358
97.0425
101.118
105.396
109.464
114.362
120.074
118.426
30.2913
1.56022
0.0933772
0.0123888
0.000848571
0.0859212
0.437931
0.938506
1.33967
1.55782
1.65756
1.72495
1.80402
1.90079
2.00827
2.12159
2.24
2.36438
2.49547
2.63374
2.77955
2.93329
3.09539
3.2663
3.44649
3.63646
3.83673
4.04783
4.27032
4.5048
4.75189
5.01225
5.2865
5.57534
5.87952
6.19986
6.53704
6.89181
7.26502
7.65762
8.07067
8.50518
8.96225
9.44303
9.94864
10.4801
11.0387
11.6253
12.2414
12.8879
13.5664
14.2782
15.0244
15.8069
16.6265
17.485
18.3835
19.3238
20.3074
21.3355
22.4094
23.5307
24.7007
25.9212
27.194
28.5199
29.9
31.3366
32.832
34.3866
36.0008
37.6754
39.4102
41.2097
43.0849
45.0525
47.1264
49.315
51.6185
54.0529
56.6179
59.305
62.1094
65.0327
68.0833
71.2704
74.5966
78.0306
81.5236
85.0595
88.6688
92.4342
96.3947
100.557
104.968
109.214
114.362
119.773
118.628
31.1513
1.78024
0.187968
0.00101905
0.00335301
0.0523891
0.344966
0.828608
1.26222
1.51976
1.63966
1.70913
1.78334
1.87588
1.98121
2.09328
2.21037
2.33312
2.46241
2.59878
2.74258
2.89421
3.05407
3.22263
3.40033
3.58767
3.78516
3.99333
4.21274
4.44396
4.68762
4.94436
5.21479
5.49959
5.79957
6.11552
6.44815
6.79816
7.16641
7.55375
7.96111
8.38953
8.84011
9.31405
9.81243
10.3364
10.8872
11.4657
12.0733
12.7111
13.3804
14.0827
14.819
15.5909
16.3998
17.247
18.1338
19.0619
20.0327
21.0477
22.108
23.2153
24.3712
25.5767
26.8343
28.1445
29.5088
30.9297
32.4093
33.9483
35.5455
37.202
38.9182
40.6989
42.5584
44.5105
46.5655
48.7329
51.0135
53.421
55.9574
58.6156
61.3874
64.2777
67.2959
70.4566
73.7573
77.1816
80.6851
84.2443
87.883
91.6826
95.6904
99.943
104.491
108.927
114.383
119.493
119.192
31.965
2.11085
0.143218
0.0137831
0.00437026
0.0279185
0.262714
0.717309
1.17458
1.47246
1.61756
1.69264
1.76276
1.85044
1.95304
2.06366
2.17941
2.30054
2.42797
2.56234
2.70407
2.8535
3.01105
3.17715
3.35227
3.53688
3.7315
3.93663
4.15283
4.38068
4.62079
4.87378
5.14023
5.42084
5.71647
6.02788
6.35573
6.70079
7.06392
7.4459
7.84753
8.26984
8.71386
9.18078
9.67181
10.188
10.7306
11.3007
11.8995
12.5281
13.188
13.8803
14.6063
15.3674
16.165
17.0006
17.8754
18.7909
19.7486
20.7499
21.7962
22.8889
24.03
25.2209
26.4633
27.7575
29.1054
30.5095
31.9727
33.4947
35.0738
36.7104
38.4067
40.1692
42.0109
43.9471
45.9836
48.1279
50.3833
52.7658
55.2721
57.8974
60.6361
63.4932
66.4812
69.608
72.8829
76.2902
79.7971
83.3781
87.0398
90.8733
94.9313
99.2737
103.962
108.605
114.42
119.227
119.315
32.73
2.53175
0.224948
0.0218399
0.000332203
0.0101517
0.191814
0.607511
1.07791
1.4151
1.59002
1.67487
1.74231
1.82474
1.92391
2.03278
2.14716
2.26666
2.39219
2.52451
2.66407
2.81123
2.96638
3.12996
3.3024
3.48419
3.67583
3.87782
4.09072
4.31507
4.55151
4.80062
5.06297
5.33928
5.63042
5.93708
6.25995
6.59983
6.9576
7.33402
7.72979
8.14589
8.58337
9.0433
9.52679
10.035
10.5692
11.1305
11.7202
12.3394
12.9894
13.6714
14.3866
15.1366
15.9225
16.7459
17.6081
18.5106
19.4548
20.4421
21.4737
22.5515
23.6776
24.8537
26.0804
27.3581
28.6888
30.0763
31.5226
33.0261
34.5851
36.2006
37.8756
39.6193
41.4439
43.3617
45.3765
47.4966
49.7285
52.0836
54.559
57.1497
59.8539
62.6792
65.6332
68.7293
71.9716
75.3573
78.8631
82.4594
86.1486
90.0115
94.1119
98.5379
103.361
108.236
114.465
118.966
120.261
33.4612
3.17808
0.0327147
0.00533587
0.000815736
0.00212696
0.133238
0.501808
0.973794
1.34711
1.55572
1.65501
1.72192
1.79902
1.89405
2.00074
2.11366
2.23155
2.35515
2.48535
2.62268
2.76749
2.92017
3.08114
3.25082
3.4297
3.61827
3.81703
4.02651
4.24727
4.47992
4.72503
4.98314
5.25504
5.54156
5.8433
6.16097
6.49546
6.84761
7.21815
7.60782
8.01758
8.44841
8.90133
9.37734
9.87751
10.4031
10.9554
11.5357
12.1452
12.785
13.4564
14.1604
14.8986
15.6724
16.4833
17.3324
18.2217
19.1519
20.1246
21.141
22.2038
23.3148
24.4757
25.6863
26.9468
28.2593
29.6287
31.0566
32.5406
34.0781
35.6723
37.3261
39.0496
40.8558
42.7543
44.7475
46.8423
49.0491
51.3758
53.8203
56.3759
59.0454
61.8365
64.7567
67.8161
71.024
74.383
77.8784
81.4849
85.1973
89.0893
93.2273
97.731
102.691
107.798
114.513
118.735
120.618
34.1475
0.571004
0.00509282
0.00621385
0.00026268
0.00786443
0.0885464
0.402589
0.864136
1.26837
1.51341
1.63204
1.7013
1.77347
1.86371
1.96768
2.07897
2.19524
2.31691
2.44494
2.57997
2.72236
2.87249
3.03077
3.19762
3.37351
3.55891
3.75434
3.96031
4.17737
4.40613
4.6471
4.90085
5.16824
5.44999
5.74667
6.05901
6.38792
6.73422
7.09857
7.48181
7.88497
8.30898
8.7547
9.22309
9.71518
10.2323
10.7755
11.3462
11.9457
12.575
13.2353
13.9278
14.654
15.4154
16.2133
17.0489
17.9242
18.8401
19.7978
20.7988
21.8459
22.9417
24.0869
25.2807
26.523
27.8171
29.1679
30.5758
32.0384
33.5541
35.125
36.7568
38.4609
40.2497
42.1267
44.0942
46.163
48.3432
50.6417
53.0524
55.5736
58.2078
60.9644
63.8475
66.8694
70.0377
73.3647
76.845
80.4592
84.1907
88.1069
92.2774
96.8529
101.935
107.287
114.547
118.558
121.901
34.7991
1.32987
0.00742333
0.00782312
0.00023924
0.00307947
0.0553069
0.312869
0.751582
1.17926
1.4619
1.60475
1.67998
1.74822
1.83314
1.93372
2.04311
2.15775
2.27751
2.40334
2.53599
2.67589
2.82341
2.97892
3.14285
3.31566
3.49782
3.68982
3.89218
4.10544
4.3302
4.5669
4.81619
5.07895
5.3558
5.64725
5.95412
6.2773
6.61755
6.97547
7.35203
7.74833
8.16519
8.6035
9.06407
9.54796
10.0564
10.5905
11.1516
11.7408
12.3594
13.0084
13.6893
14.4032
15.1516
15.9361
16.7579
17.6188
18.5197
19.4621
20.4473
21.4788
22.5586
23.6877
24.8632
26.0863
27.3609
28.6919
30.079
31.5193
33.0113
34.56
36.1706
37.8544
39.6218
41.4753
43.4178
45.4608
47.6142
49.8816
52.2581
54.744
57.3427
60.0622
62.9092
65.888
69.0156
72.3083
75.7655
79.3749
83.1196
87.0639
91.2592
95.8983
101.094
106.685
114.55
118.49
122.767
35.4221
2.19467
0.147434
0.0147097
0.00138993
0.000557486
0.0307843
0.234681
0.639587
1.08086
1.40019
1.57173
1.65723
1.72323
1.80258
1.89907
2.00617
2.1191
2.23696
2.36056
2.49077
2.62811
2.77294
2.92561
3.08655
3.25621
3.43503
3.62352
3.82217
4.03154
4.25217
4.48449
4.72924
4.98726
5.25905
5.54513
5.84644
6.16378
6.49776
6.84908
7.21878
7.60793
8.01733
8.44784
8.90031
9.37571
9.87535
10.4003
10.9516
11.5304
12.138
12.7757
13.4446
14.146
14.8813
15.6521
16.4597
17.306
18.1917
19.118
20.0871
21.1026
22.1664
23.2781
24.4343
25.6369
26.8913
28.2017
29.5666
30.9832
32.4523
33.9778
35.5658
37.2298
38.9764
40.8036
42.7185
44.7339
46.8598
49.095
51.4371
53.8865
56.4505
59.132
61.9369
64.8757
67.9578
71.2111
74.6363
78.2365
81.9873
85.9522
90.172
94.8662
100.158
105.986
114.485
118.585
124.042
3.08962
0.268795
0.000144821
0.000547201
0.00164962
0.0134683
0.168524
0.531413
0.974939
1.32769
1.53156
1.6321
1.69832
1.77224
1.86392
1.96821
2.0793
2.19526
2.31664
2.44438
2.57908
2.72114
2.87091
3.02878
3.1952
3.37061
3.5555
3.75036
3.95573
4.17213
4.39995
4.64009
4.89326
5.1598
5.44039
5.73602
6.04734
6.37489
6.71948
7.08221
7.46405
7.86571
8.28806
8.73206
9.19876
9.68935
10.2048
10.7461
11.3143
11.9107
12.5367
13.1936
13.8826
14.6047
15.3616
16.1547
16.9857
17.8554
18.7656
19.7185
20.7178
21.7645
22.8571
23.9929
25.1747
26.4086
27.6974
29.0389
30.4313
31.8759
33.3789
34.946
36.589
38.3117
40.1112
41.9975
43.9852
46.082
48.2828
50.5893
53.0026
55.5292
58.1725
60.9346
63.8285
66.8663
70.0733
73.4639
77.0438
80.7955
84.7748
89.0165
93.7559
99.129
105.175
114.327
118.887
125.787
0.00479414
0.000636181
0.00103064
0.000749262
0.0033452
0.112918
0.4275
0.862699
1.24447
1.48325
1.60357
1.6731
1.74224
1.82851
1.92937
2.03838
2.15245
2.27161
2.39683
2.52883
2.66806
2.81485
2.96959
3.1327
3.30461
3.48581
3.67678
3.87808
4.09013
4.31335
4.54883
4.797
5.05813
5.33316
5.62301
5.92813
6.24907
6.58681
6.94247
7.31682
7.71049
8.12445
8.55969
9.01732
9.49855
10.0042
10.5351
11.0924
11.6774
12.2917
12.9363
13.6125
14.3213
15.0641
15.8425
16.6579
17.5116
18.405
19.3414
20.324
21.3528
22.4252
23.5389
24.6994
25.9129
27.1793
28.4962
29.8635
31.2849
32.7646
34.3096
35.9315
37.6283
39.3976
41.2553
43.2151
45.2802
47.447
49.7173
52.095
54.5824
57.1819
59.9002
62.7477
65.7396
68.9016
72.2472
75.7994
79.5424
83.5293
87.7844
92.5661
98.0074
104.253
114.032
119.442
127.752
0.000171835
0.00591006
0.0645651
0.323544
0.743624
1.15147
1.42681
1.57084
1.64696
1.71253
1.79306
1.88982
1.99639
2.10851
2.22548
2.34817
2.47742
2.61375
2.75749
2.90902
3.06875
3.23709
3.41453
3.60154
3.79866
4.00622
4.22483
4.45561
4.69855
4.95417
5.22361
5.50754
5.80623
6.12044
6.4513
6.79971
7.16633
7.55187
7.95727
8.38357
8.83191
9.30346
9.79882
10.319
10.865
11.4384
12.0406
12.6727
13.3359
14.031
14.7595
15.523
16.3225
17.1595
18.036
18.956
19.9214
20.931
21.9815
23.0729
24.2124
25.4049
26.6479
27.9394
29.2815
30.679
32.1355
33.6585
35.2575
36.9253
38.6639
40.4926
42.4246
44.4567
46.5878
48.8211
51.1611
53.6078
56.1636
58.8358
61.6354
64.5773
67.6869
70.9861
74.5006
78.2275
82.2201
86.4797
91.2935
96.7848
103.218
113.561
120.243
130.25
0.000367255
0.0226996
0.216914
0.617345
1.04998
1.3626
1.53312
1.61905
1.68285
1.75773
1.84977
1.95342
2.06345
2.17825
2.29841
2.42486
2.55821
2.69885
2.8471
3.00336
3.16807
3.34167
3.52462
3.71748
3.92045
4.13452
4.36047
4.59796
4.84806
5.11185
5.38964
5.68172
5.98915
6.31304
6.65405
7.01274
7.38996
7.78664
8.20389
8.64279
9.10431
9.58907
10.0981
10.6327
11.1942
11.784
12.4032
13.0529
13.734
14.4479
15.1959
15.9792
16.7992
17.6589
18.5623
19.5097
20.4984
21.5259
22.595
23.7141
24.8847
26.1034
27.3693
28.6867
30.0598
31.4922
32.9932
34.5667
36.2018
37.9093
39.7101
41.6118
43.61
45.7054
47.9013
50.2026
52.6062
55.1149
57.7397
60.491
63.3837
66.4415
69.6857
73.1554
76.8527
80.8367
85.1034
89.9412
95.4624
102.069
112.875
121.244
132.588
0.000280424
0.130521
0.495138
0.939644
1.28721
1.48798
1.58826
1.65292
1.72261
1.80931
1.90945
2.01714
2.12974
2.24738
2.371
2.50131
2.63875
2.78365
2.93639
3.09736
3.26703
3.44584
3.63432
3.83262
4.04254
4.26335
4.49532
4.73997
4.99802
5.2694
5.55475
5.85541
6.1722
6.50554
6.85615
7.2249
7.61278
8.02084
8.45014
8.90138
9.37531
9.87304
10.3959
10.9453
11.5224
12.1282
12.7641
13.4306
14.1294
14.8616
15.6282
16.4311
17.2744
18.1606
19.0886
20.0551
21.0587
22.1064
23.2054
24.353
25.5457
26.7856
28.0786
29.4273
30.8363
32.3137
33.8589
35.4579
37.1356
38.9091
40.7787
42.7413
44.8004
46.9593
49.2181
51.575
54.0375
56.6141
59.3141
62.1524
65.1547
68.3439
71.7636
75.4235
79.3933
83.649
88.51
94.0459
100.815
111.95
122.297
135.363
3.94872
4.16385
4.3908
4.63011
4.88214
5.14687
5.42556
5.71947
6.02894
6.3544
6.69678
7.05698
7.43592
7.83469
8.25416
8.69487
9.15761
9.64392
10.155
10.6921
11.2562
11.8483
12.4698
13.1215
13.8047
14.5205
15.2701
16.0561
16.8829
17.7511
18.6582
19.6012
20.5813
21.6092
22.6874
23.8101
24.9762
26.1905
27.4592
28.7827
30.1675
31.619
33.1285
34.692
36.3424
38.0874
39.9221
41.8486
43.8702
45.9899
48.2051
50.5147
52.9285
55.454
58.1023
60.888
63.8334
66.9619
70.3235
73.9357
77.8757
82.1193
86.9945
92.5308
99.4568
110.785
123.208
137.151
4.28447
4.51844
4.76411
5.02222
5.29441
5.58146
5.88329
6.20074
6.53484
6.88635
7.25625
7.64556
8.05492
8.48481
8.93645
9.41132
9.91039
10.4348
10.9857
11.564
12.1707
12.8069
13.4743
14.1733
14.9057
15.6754
16.4856
17.3344
18.2186
19.1372
20.0952
21.1041
22.1597
23.255
24.3947
25.5849
26.829
28.1263
29.4861
30.9061
4.40447
4.64359
4.89573
5.16154
5.44141
5.73532
6.04479
6.37055
6.71325
7.07405
7.45373
7.85268
8.27158
8.71205
9.17531
9.66227
10.1738
10.7113
11.2754
11.8672
12.4877
13.1389
13.8208
14.5362
15.29
16.0826
16.9097
17.77
18.6644
19.6024
20.5927
21.6215
22.6886
23.8028
24.9691
26.1871
27.4575
28.7888
4.76751
5.02692
5.29919
5.58523
5.8869
6.2041
6.53794
6.8895
7.25927
7.64745
8.05543
8.48485
8.93635
9.41088
9.9094
10.4331
10.9827
11.5593
12.1641
12.799
13.4632
14.1627
14.9006
15.6734
16.4769
17.3127
18.1847
19.104
20.0714
21.0695
22.11
23.2007
24.3422
25.5332
26.775
4.88998
5.15438
5.43342
5.72716
6.03558
6.36065
6.70285
7.06233
7.43961
7.83693
8.25513
8.69461
9.15645
9.64184
10.1515
10.6864
11.2476
11.8365
12.4549
13.1014
13.7866
14.5069
15.2566
16.0354
16.848
17.6993
18.599
5.28007
5.56498
5.86524
6.1816
6.51398
6.86281
7.22961
7.61657
8.02311
8.45029
8.89944
9.37137
9.86677
10.3867
10.9324
11.5054
12.107
12.736
13.4071
14.1056
14.8298
15.585
16.3765
17.208
5.69335
6.00023
6.32234
6.6606
7.01819
7.39442
7.78877
8.20374
8.64017
9.09831
9.57921
10.0842
10.6145
11.1713
11.7559
12.3678
6.80553
7.16943
7.55228
7.95545
8.37861
8.82262
9.28905
9.77912
10.2939
10.8344
11.4017
11.9963
7.31444
7.70489
8.11409
8.54414
8.99627
9.47139
9.97039
10.4943
11.0441
11.621
63.3764
64.2702
65.2713
61.8494
62.5882
63.4188
64.3427
65.384
66.5748
67.8922
69.2547
70.499
71.5663
72.6493
73.9633
75.3334
75.9987
76.4894
78.451
82.3977
90.0664
63.5361
59.0968
59.458
59.8294
60.2248
60.6758
61.2098
61.8564
62.6076
63.4526
64.4048
65.4894
66.7431
68.1245
69.5487
70.8563
71.9997
73.2081
74.6921
76.1826
76.7914
77.1918
79.1196
83.2625
89.9904
62.1979
57.6869
58.0367
58.3871
58.7397
59.0996
59.4641
59.8375
60.2329
60.6813
61.2134
61.8577
62.6185
63.4823
64.4644
65.5944
66.9074
68.3536
69.8371
71.2123
72.4454
73.8025
75.4729
77.081
77.6662
78.0723
79.9311
84.2256
89.666
61.1619
56.2538
56.6161
56.9738
57.3289
57.6849
58.0358
58.3867
58.7417
59.0993
59.463
59.8365
60.2327
60.6782
61.207
61.8572
62.629
63.5107
64.5214
65.6963
67.0747
68.5901
70.1321
71.5755
72.9096
74.4375
76.3074
77.9984
78.5381
79.0234
80.8603
85.2296
89.2294
60.3189
55.1189
55.5024
55.879
56.2517
56.6146
56.9735
57.3292
57.6812
58.0329
58.3846
58.739
59.0976
59.4627
59.837
60.2312
60.673
61.1994
61.8553
62.6393
63.5395
64.5776
65.7978
67.2423
68.8298
70.4281
71.9431
73.391
75.1105
77.1794
78.893
79.313
79.8738
81.8103
86.1859
88.7555
59.7682
54.318
54.7219
55.1199
55.5052
55.8822
56.2514
56.6142
56.972
57.3269
57.6802
58.0323
58.3849
58.7398
59.0983
59.4635
59.8384
60.2305
60.6678
61.1943
61.8578
62.6496
63.5636
64.6302
65.8992
67.4123
69.0763
70.7246
72.3122
73.8888
75.8216
78.0927
79.759
79.969
80.5126
82.6686
87.0374
88.2511
59.3025
53.4718
53.8998
54.3203
54.727
55.1213
55.507
55.8847
56.2546
56.6185
56.9767
57.3311
57.6847
58.0369
58.3889
58.743
59.1013
59.4663
59.8401
60.2307
60.6654
61.1939
61.8604
62.6617
63.5897
64.6811
66
67.5847
69.327
71.0214
72.684
74.4064
76.5782
79.0522
80.615
80.5587
80.9573
83.3661
87.7448
87.8722
59.09
51.626
52.1083
52.5769
53.0317
53.4772
53.9068
54.3235
54.7294
55.126
55.5136
55.8914
56.2622
56.627
56.9853
57.3404
57.6935
58.0446
58.3961
58.7512
59.1098
59.4734
59.8461
60.2352
60.6678
61.1971
61.8646
62.6734
63.6148
64.7324
66.1007
67.7558
69.5777
71.3149
73.0548
74.9491
77.3936
80.0748
81.4838
81.119
81.2911
83.9065
88.3376
87.8055
58.9252
49.5474
50.0909
50.6189
51.1312
51.6322
52.1155
52.5843
53.0396
53.4811
53.911
54.3299
54.7383
55.1352
55.5228
55.9021
56.2739
56.639
56.9982
57.3539
57.7069
58.0583
58.4101
58.7645
59.1219
59.4848
59.8567
60.2446
60.6754
61.2038
61.8739
62.6852
63.6387
64.7832
66.2044
67.9268
69.8264
71.6066
73.4318
75.5329
78.2942
81.1814
82.369
81.6227
81.5391
84.3315
88.9115
87.9648
58.819
47.8222
48.4137
48.9897
49.5532
50.0978
50.6265
51.1393
51.637
52.1211
52.5898
53.0462
53.4908
53.922
54.3411
54.7488
55.1466
55.5362
55.9176
56.2898
56.6559
57.017
57.3736
57.727
58.0784
58.4305
58.7846
59.1411
59.5027
59.8726
60.2578
60.6869
61.2142
61.8862
62.7035
63.6668
64.835
66.3064
68.0941
70.0646
71.8975
73.8267
76.1806
79.3057
82.3702
83.2409
82.0074
81.6508
84.65
89.4047
88.1568
58.787
46.5893
47.2164
47.8292
48.4219
48.9986
49.5587
50.1039
50.6329
51.1464
51.646
52.1312
52.6015
53.059
53.5029
53.9345
54.3551
54.7647
55.1642
55.5544
55.9363
56.3102
56.6781
57.0403
57.3973
57.752
58.1041
58.4559
58.8099
59.1663
59.5268
59.8951
60.2788
60.7053
61.2303
61.9033
62.7255
63.6986
64.8909
66.4091
68.2538
70.2923
72.1935
74.2489
76.9177
80.4559
83.6369
84.0537
82.1741
81.5334
84.931
89.7892
88.2288
58.7947
11.81
12.3566
12.9198
13.5015
14.1018
14.7208
15.3582
16.0139
16.6875
17.3787
18.087
18.812
19.5531
20.3096
21.0803
21.8651
22.6626
23.4718
24.2918
25.1214
25.9593
26.8045
27.6557
28.5114
29.3703
30.2309
31.092
31.9524
32.8105
33.6646
34.5142
35.3575
36.1935
37.021
37.8382
38.6452
39.4402
40.2227
40.9918
41.7466
42.4871
43.212
43.9208
44.6136
45.2906
45.951
46.5976
47.2246
47.834
48.428
49.0059
49.5674
50.1135
50.6437
51.1588
51.6587
52.1449
52.6162
53.0742
53.5207
53.9542
54.3754
54.7862
55.1872
55.5785
55.9606
56.3356
56.705
57.0683
57.427
57.7824
58.1353
58.4883
58.8425
59.1982
59.5579
59.9256
60.3079
60.7324
61.2564
61.9302
62.7561
63.7375
64.9513
66.5101
68.4103
70.5061
72.4956
74.7162
77.7674
81.7637
84.9797
84.7416
81.969
81.0284
85.078
90.1206
88.2206
58.8595
11.8132
12.3579
12.9211
13.5029
14.1033
14.7224
15.3598
16.0156
16.6893
17.3806
18.089
18.814
19.5552
20.3117
21.0825
21.8671
22.6648
23.4742
24.2943
25.1238
25.9618
26.8074
27.6585
28.5142
29.3732
30.2339
31.0952
31.9558
32.8142
33.6686
34.5182
35.3616
36.1978
37.0253
37.8431
38.6497
39.4448
40.2278
40.9976
41.7529
42.4936
43.2188
43.928
44.6218
45.299
45.959
46.603
47.2312
47.8423
48.4371
49.0157
49.5785
50.1254
50.657
51.1731
51.6745
52.1621
52.6351
53.0944
53.5413
53.9763
54.3998
54.8116
55.2134
55.6065
55.9906
56.3668
56.7369
57.1014
57.4612
57.8181
58.1722
58.5254
58.8801
59.2364
59.5962
59.9626
60.3445
60.7684
61.2927
61.9679
62.7974
63.7846
65.0158
66.6102
68.5598
70.7063
72.8005
75.2271
78.7372
83.2426
86.4068
85.2025
81.2915
80.1461
85.0752
90.4534
88.1299
59.0301
11.8122
12.3577
12.921
13.5028
14.1032
14.7222
15.3596
16.0154
16.6891
17.3804
18.0888
18.814
19.5551
20.3115
21.0826
21.8672
22.6647
23.474
24.2942
25.124
25.9621
26.8076
27.6589
28.5147
29.3737
30.2345
31.0958
31.9565
32.8148
33.6694
34.5195
35.3632
36.1992
37.0266
37.8446
38.652
39.4477
40.2308
41.0005
41.7563
42.4973
43.223
43.9327
44.6267
45.3045
45.9658
46.6109
47.2397
47.8523
48.4482
49.0273
49.5907
50.1386
50.6714
51.1896
51.6921
52.181
52.657
53.1187
53.5672
54.0036
54.4291
54.8435
55.2469
55.6412
56.0263
56.404
56.7757
57.1418
57.5028
57.8602
58.2153
58.5698
58.9251
59.2813
59.6417
60.0085
60.3905
60.8159
61.3406
62.0175
62.8513
63.8416
65.0854
66.7114
68.704
70.8979
73.1075
75.7808
79.8184
84.8881
87.8786
85.3259
80.2634
79.1282
85.0013
90.6993
87.9613
59.2021
11.8101
12.3579
12.9212
13.503
14.1034
14.7225
15.36
16.0158
16.6894
17.3808
18.0894
18.8144
19.5556
20.3121
21.0832
21.868
22.6656
23.475
24.2951
25.1249
25.9632
26.8086
27.6598
28.5158
29.375
30.236
31.0979
31.9587
32.8169
33.6721
34.5221
35.3654
36.2021
37.0303
37.8486
38.6562
39.4519
40.2355
41.0056
41.7616
42.5029
43.2295
43.9403
44.6348
45.3133
45.9752
46.6206
47.2502
47.8633
48.4604
49.041
49.6059
50.1552
50.6888
51.208
51.713
52.2039
52.6805
53.1444
53.5955
54.0346
54.4625
54.8794
55.2855
55.6819
56.069
56.4487
56.8213
57.1876
57.5496
57.9087
58.2648
58.6197
58.9754
59.3329
59.6943
60.0629
60.4458
60.8721
61.3989
62.0784
62.9154
63.9085
65.1618
66.8133
68.8425
71.0816
73.4158
76.3775
80.9882
86.6396
89.2424
85.1463
79.3243
78.3557
84.9738
90.8263
87.6884
59.3329
11.8121
12.358
12.9213
13.5031
14.1036
14.7227
15.3602
16.016
16.6898
17.3811
18.0896
18.8148
19.5559
20.3126
21.0838
21.8687
22.6662
23.4757
24.2961
25.1259
25.9643
26.8098
27.6613
28.5177
29.377
30.2379
31.0996
31.9609
32.8196
33.6746
34.525
35.369
36.2057
37.0341
37.8524
38.6606
39.4572
40.2404
41.0108
41.7679
42.5099
43.2367
43.9482
44.6433
45.3221
45.9851