/*--------------------------------*- C++ -*----------------------------------*\
  =========                 |
  \\      /  F ield         | OpenFOAM: The Open Source CFD Toolbox
   \\    /   O peration     | Website:  https://openfoam.org
    \\  /    A nd           | Version:  9
     \\/     M anipulation  |
\*---------------------------------------------------------------------------*/
FoamFile
{
    format      ascii;
    class       volScalarField;
    location    "2250";
    object      p;
}
// * * * * * * * * * * * * * * * * * * * * * * * * * * * * * * * * * * * * * //

dimensions      [0 2 -2 0 0 0 0];

internalField   nonuniform List<scalar> 
13538
(
-0.000959325
-0.000989933
-0.00100143
-0.00103173
-0.00105331
-0.00108449
-0.00111434
-0.00115034
-0.00118765
-0.00122982
-0.00127443
-0.00132326
-0.00137511
-0.00143091
-0.00149011
-0.00155321
-0.00162
-0.00169086
-0.00176578
-0.00184508
-0.00192896
-0.00201778
-0.00211194
-0.00221195
-0.00231842
-0.00243212
-0.00255398
-0.00268511
-0.00282684
-0.00298071
-0.00314858
-0.00333253
-0.00353492
-0.00375844
-0.004006
-0.00428076
-0.00458609
-0.00492553
-0.00530262
-0.00572096
-0.00618395
-0.00669488
-0.00725662
-0.00787171
-0.00854207
-0.00926904
-0.0100532
-0.0108945
-0.011792
-0.012744
-0.0137481
-0.0148012
-0.0158998
-0.0170396
-0.0182163
-0.019425
-0.0206616
-0.0219218
-0.0232015
-0.0244982
-0.0258101
-0.027136
-0.0284772
-0.0298368
-0.0312184
-0.032629
-0.0340782
-0.0355781
-0.0371429
-0.0387903
-0.0405403
-0.0424176
-0.0444468
-0.0466602
-0.0490894
-0.0517663
-0.0547362
-0.0580333
-0.0617046
-0.0657814
-0.0703226
-0.0753438
-0.0809135
-0.086996
-0.0937247
-0.100921
-0.108865
-0.117097
-0.126205
-0.1352
-0.145368
-0.154593
-0.165778
-0.174439
-0.186585
-0.190824
-0.203397
-0.226928
-0.248063
-0.000917165
-0.000944337
-0.00095681
-0.0009835
-0.00100617
-0.00103479
-0.00106421
-0.00109798
-0.00113387
-0.00117364
-0.00121613
-0.00126225
-0.00131142
-0.00136414
-0.00142015
-0.00147975
-0.0015429
-0.00160982
-0.00168061
-0.00175553
-0.00183481
-0.00191879
-0.00200786
-0.00210253
-0.0022034
-0.00231121
-0.00242686
-0.00255143
-0.00268616
-0.00283255
-0.00299234
-0.00316748
-0.00336018
-0.00357292
-0.00380841
-0.00406957
-0.00435945
-0.00468129
-0.0050383
-0.0054337
-0.00587059
-0.00635186
-0.00688006
-0.00745739
-0.0080855
-0.00876547
-0.00949778
-0.0102823
-0.0111179
-0.0120031
-0.0129353
-0.013912
-0.0149296
-0.0159839
-0.0170715
-0.0181877
-0.0193285
-0.0204902
-0.0216696
-0.022864
-0.0240722
-0.0252936
-0.0265291
-0.0277833
-0.0290595
-0.0303649
-0.0317096
-0.0331062
-0.0345679
-0.0361144
-0.0377651
-0.0395444
-0.0414802
-0.043603
-0.045947
-0.0485479
-0.0514476
-0.054686
-0.0583146
-0.0623664
-0.0669081
-0.0719471
-0.0775765
-0.0837439
-0.0906185
-0.0979717
-0.106162
-0.114622
-0.12411
-0.133364
-0.144063
-0.153478
-0.165373
-0.173895
-0.18735
-0.192533
-0.208433
-0.222683
-0.239069
-0.000873881
-0.000899564
-0.000912123
-0.000936078
-0.00095892
-0.000985572
-0.00101411
-0.00104597
-0.00108028
-0.00111785
-0.00115821
-0.00120178
-0.00124833
-0.00129811
-0.00135104
-0.00140731
-0.00146694
-0.00153012
-0.00159696
-0.0016677
-0.00174257
-0.00182191
-0.00190609
-0.00199561
-0.00209104
-0.00219311
-0.00230265
-0.0024207
-0.00254845
-0.00268729
-0.00283884
-0.00300493
-0.00318761
-0.00338916
-0.00361207
-0.00385901
-0.00413275
-0.00443623
-0.00477236
-0.00514405
-0.00555405
-0.00600496
-0.00649895
-0.00703803
-0.00762355
-0.00825637
-0.00893692
-0.00966482
-0.0104391
-0.0112582
-0.0121196
-0.0130209
-0.0139587
-0.0149293
-0.0159293
-0.0169546
-0.0180012
-0.0190658
-0.0201457
-0.0212385
-0.0223436
-0.0234605
-0.0245903
-0.0257372
-0.0269062
-0.0281043
-0.0293408
-0.0306287
-0.0319825
-0.0334209
-0.0349655
-0.0366401
-0.0384721
-0.0404942
-0.0427436
-0.0452539
-0.0480702
-0.0512379
-0.0548071
-0.0588168
-0.0633385
-0.0683791
-0.0740507
-0.0802899
-0.0872893
-0.0947926
-0.103221
-0.111914
-0.121777
-0.131309
-0.14252
-0.152196
-0.164779
-0.173358
-0.187747
-0.193096
-0.211058
-0.221243
-0.23479
-0.000828676
-0.000853973
-0.000866308
-0.000888184
-0.000910607
-0.000935683
-0.000963026
-0.000993147
-0.00102572
-0.00106117
-0.0010993
-0.00114033
-0.00118418
-0.00123101
-0.00128079
-0.00133366
-0.00138968
-0.00144901
-0.00151177
-0.00157818
-0.00164848
-0.00172297
-0.00180205
-0.00188616
-0.00197588
-0.00207188
-0.00217498
-0.00228613
-0.00240648
-0.00253732
-0.00268017
-0.00283674
-0.0030089
-0.00319878
-0.00340863
-0.00364091
-0.00389815
-0.00418297
-0.00449801
-0.00484585
-0.00522896
-0.00564962
-0.00610976
-0.00661102
-0.00715466
-0.00774125
-0.00837102
-0.00904355
-0.00975787
-0.0105122
-0.0113045
-0.0121321
-0.0129922
-0.0138807
-0.0147949
-0.0157308
-0.0166849
-0.0176543
-0.0186359
-0.0196286
-0.0206312
-0.021644
-0.0226684
-0.0237084
-0.0247693
-0.025858
-0.0269841
-0.0281615
-0.0294045
-0.0307304
-0.0321635
-0.0337268
-0.0354484
-0.0373631
-0.039508
-0.0419174
-0.0446412
-0.0477266
-0.0512252
-0.0551778
-0.0596674
-0.0647018
-0.0704022
-0.0766982
-0.0838093
-0.0914596
-0.100124
-0.109048
-0.119281
-0.129117
-0.140847
-0.150834
-0.164076
-0.172832
-0.188079
-0.193675
-0.212826
-0.219436
-0.23116
-0.000782692
-0.000807907
-0.000820042
-0.000840194
-0.000861917
-0.000885599
-0.000911616
-0.000940076
-0.000970878
-0.00100425
-0.00104015
-0.00107869
-0.00111986
-0.00116376
-0.00121041
-0.00125991
-0.00131235
-0.00136784
-0.00142653
-0.00148863
-0.00155435
-0.001624
-0.00169794
-0.00177661
-0.00186055
-0.0019504
-0.00204693
-0.00215105
-0.00226381
-0.00238643
-0.00252033
-0.00266706
-0.00282837
-0.0030062
-0.00320262
-0.00341984
-0.00366016
-0.00392593
-0.00421954
-0.00454326
-0.00489925
-0.00528955
-0.00571579
-0.00617942
-0.00668142
-0.00722219
-0.00780181
-0.00841977
-0.00907507
-0.00976596
-0.0104903
-0.0112456
-0.0120292
-0.0128375
-0.0136675
-0.0145156
-0.0153788
-0.0162543
-0.0171392
-0.0180326
-0.0189335
-0.0198427
-0.0207617
-0.0216948
-0.0226464
-0.0236247
-0.0246389
-0.0257028
-0.0268318
-0.0280422
-0.0293583
-0.0308042
-0.0324087
-0.0342068
-0.0362373
-0.0385361
-0.0411558
-0.0441428
-0.0475574
-0.0514425
-0.0558849
-0.0608985
-0.0666075
-0.0729498
-0.0801656
-0.0879516
-0.0968362
-0.106003
-0.116608
-0.126771
-0.139043
-0.149361
-0.163271
-0.172297
-0.188323
-0.194074
-0.213882
-0.21836
-0.228961
-0.00073603
-0.000761221
-0.000773232
-0.000791907
-0.000812779
-0.000835179
-0.000859805
-0.000886641
-0.000915647
-0.000946982
-0.000980648
-0.00101671
-0.00105521
-0.00109619
-0.00113971
-0.00118585
-0.00123469
-0.00128634
-0.00134095
-0.00139869
-0.0014598
-0.00152455
-0.00159328
-0.00166641
-0.00174446
-0.00182802
-0.00191781
-0.00201469
-0.00211965
-0.00223381
-0.00235846
-0.00249506
-0.0026452
-0.00281065
-0.0029933
-0.00319513
-0.00341821
-0.00366466
-0.00393662
-0.00423607
-0.0045649
-0.00492487
-0.00531744
-0.00574372
-0.0062045
-0.00670005
-0.00723036
-0.00779472
-0.00839204
-0.00902076
-0.00967861
-0.0103632
-0.011072
-0.0118017
-0.0125491
-0.0133112
-0.014085
-0.0148678
-0.0156573
-0.0164527
-0.0172532
-0.0180591
-0.0188728
-0.0196982
-0.0205403
-0.0214073
-0.0223081
-0.0232562
-0.0242671
-0.0253583
-0.0265527
-0.0278765
-0.0293572
-0.0310314
-0.0329385
-0.0351182
-0.0376208
-0.0404983
-0.043815
-0.0476164
-0.0519916
-0.0569659
-0.0626703
-0.0690449
-0.0763529
-0.0842607
-0.0933672
-0.102772
-0.113748
-0.124259
-0.137061
-0.147777
-0.162374
-0.171735
-0.188478
-0.19448
-0.214741
-0.217894
-0.227582
-0.000688922
-0.000714023
-0.000725987
-0.000743371
-0.000763318
-0.000784493
-0.000807709
-0.000832944
-0.000860158
-0.000889471
-0.000920907
-0.000954527
-0.000990357
-0.00102845
-0.00106886
-0.00111164
-0.00115689
-0.00120471
-0.00125522
-0.00130861
-0.00136508
-0.00142489
-0.00148837
-0.0015559
-0.00162797
-0.00170514
-0.00178808
-0.00187758
-0.00197455
-0.00208004
-0.00219524
-0.00232146
-0.00246017
-0.00261297
-0.00278157
-0.00296774
-0.00317334
-0.00340027
-0.00365038
-0.00392545
-0.00422711
-0.00455685
-0.00491593
-0.00530519
-0.00572523
-0.0061762
-0.0066579
-0.0071696
-0.00771007
-0.00827771
-0.00887039
-0.00948576
-0.0101213
-0.0107738
-0.0114404
-0.0121181
-0.0128039
-0.0134957
-0.0141911
-0.0148895
-0.0155902
-0.0162937
-0.0170021
-0.0177199
-0.0184519
-0.019206
-0.0199921
-0.0208221
-0.0217124
-0.0226806
-0.023749
-0.0249443
-0.0262967
-0.0278395
-0.0296141
-0.0316627
-0.0340378
-0.036795
-0.0399966
-0.0436988
-0.0479897
-0.052909
-0.0585906
-0.0649787
-0.0723562
-0.0803853
-0.0896941
-0.099338
-0.110696
-0.12155
-0.134923
-0.14606
-0.161355
-0.171142
-0.188587
-0.194915
-0.2155
-0.218085
-0.22693
-0.000641491
-0.000666393
-0.000678347
-0.000694588
-0.000713578
-0.000733573
-0.000755381
-0.000779026
-0.000804456
-0.000831767
-0.000860993
-0.000892174
-0.000925357
-0.000960574
-0.000997873
-0.00103732
-0.00107899
-0.00112297
-0.0011694
-0.00121841
-0.00127022
-0.00132507
-0.00138325
-0.00144513
-0.00151115
-0.00158183
-0.0016578
-0.00173979
-0.00182863
-0.00192527
-0.00203081
-0.00214645
-0.00227352
-0.00241344
-0.00256775
-0.00273806
-0.00292601
-0.00313324
-0.00336142
-0.00361207
-0.00388662
-0.00418629
-0.00451209
-0.00486471
-0.00524455
-0.00565161
-0.00608553
-0.00654552
-0.00703019
-0.00753803
-0.00806692
-0.00861443
-0.00917812
-0.00975501
-0.0103423
-0.0109371
-0.0115367
-0.0121391
-0.0127416
-0.013344
-0.0139456
-0.0145473
-0.0151514
-0.0157618
-0.0163829
-0.0170234
-0.0176929
-0.0184029
-0.0191703
-0.0200118
-0.0209501
-0.0220118
-0.0232286
-0.0246329
-0.0262666
-0.0281747
-0.0304108
-0.0330335
-0.036107
-0.0396934
-0.0438862
-0.0487297
-0.0543655
-0.0607484
-0.0681728
-0.0763079
-0.0858025
-0.0956875
-0.107416
-0.11865
-0.132592
-0.144192
-0.160225
-0.170499
-0.188657
-0.195415
-0.216234
-0.218827
-0.227239
-0.000593838
-0.000618434
-0.00063039
-0.000645591
-0.000663608
-0.000682458
-0.000702871
-0.000724939
-0.000748598
-0.000773924
-0.000800958
-0.000829735
-0.000860283
-0.000892641
-0.000926861
-0.000962982
-0.00100108
-0.00104123
-0.00108356
-0.00112821
-0.00117535
-0.0012252
-0.00127805
-0.00133423
-0.00139414
-0.00145827
-0.00152718
-0.00160154
-0.00168212
-0.00176978
-0.0018655
-0.00197039
-0.00208562
-0.00221248
-0.00235235
-0.00250664
-0.0026768
-0.00286427
-0.00307049
-0.00329674
-0.00354426
-0.00381406
-0.00410688
-0.00442332
-0.00476347
-0.00512726
-0.00551425
-0.00592339
-0.00635342
-0.00680261
-0.00726895
-0.00775003
-0.00824352
-0.00874637
-0.00925583
-0.00976924
-0.0102842
-0.0107984
-0.0113095
-0.0118172
-0.0123208
-0.0128215
-0.0133217
-0.0138243
-0.0143344
-0.0148608
-0.0154124
-0.0160005
-0.0166417
-0.017354
-0.0181587
-0.019082
-0.0201562
-0.0214147
-0.0229006
-0.0246586
-0.0267439
-0.0292192
-0.0321498
-0.0356035
-0.039679
-0.0444256
-0.0499936
-0.056353
-0.063799
-0.0720207
-0.0816847
-0.0918059
-0.103898
-0.11552
-0.130042
-0.142162
-0.158942
-0.169785
-0.188693
-0.196006
-0.217012
-0.219958
-0.22856
-0.000546033
-0.000570228
-0.000582171
-0.000596429
-0.000613471
-0.000631193
-0.000650229
-0.000670742
-0.000692646
-0.000716002
-0.000740858
-0.000767244
-0.000795185
-0.000824711
-0.00085586
-0.000888674
-0.000923216
-0.00095956
-0.000997805
-0.00103808
-0.00108054
-0.00112539
-0.00117289
-0.00122333
-0.00127708
-0.00133459
-0.00139636
-0.00146301
-0.00153522
-0.00161378
-0.00169957
-0.00179357
-0.00189683
-0.0020105
-0.0021358
-0.00227396
-0.00242625
-0.00259391
-0.00277817
-0.00298013
-0.00320077
-0.00344092
-0.00370116
-0.00398185
-0.00428292
-0.00460421
-0.00494503
-0.00530431
-0.00568077
-0.00607257
-0.00647769
-0.00689373
-0.00731842
-0.00774883
-0.00818216
-0.0086157
-0.00904736
-0.0094747
-0.00989577
-0.0103101
-0.0107169
-0.0111172
-0.0115135
-0.0119089
-0.0123083
-0.0127197
-0.0131526
-0.0136174
-0.0141299
-0.0147098
-0.0153773
-0.0161582
-0.0170851
-0.0181908
-0.0195192
-0.0211175
-0.0230419
-0.0253551
-0.0281285
-0.0314324
-0.0353687
-0.0399995
-0.0454781
-0.0517945
-0.0592264
-0.0675292
-0.0773252
-0.0876791
-0.100119
-0.112147
-0.12728
-0.139939
-0.1575
-0.168998
-0.18869
-0.196704
-0.217991
-0.221568
-0.230021
-0.00049815
-0.000521863
-0.000533763
-0.000547141
-0.000563212
-0.00057983
-0.000597511
-0.000616474
-0.00063664
-0.000658053
-0.000680758
-0.000704771
-0.000730127
-0.000756843
-0.000784944
-0.000814472
-0.000845477
-0.00087802
-0.000912191
-0.000948097
-0.000985883
-0.00102573
-0.00106785
-0.00111253
-0.00116009
-0.00121093
-0.00126552
-0.00132438
-0.00138815
-0.00145752
-0.00153327
-0.00161627
-0.00170747
-0.00180787
-0.0019185
-0.00204048
-0.00217486
-0.00232272
-0.00248509
-0.00266288
-0.00285688
-0.00306766
-0.00329569
-0.00354111
-0.00380374
-0.00408321
-0.00437874
-0.00468921
-0.00501312
-0.00534878
-0.00569398
-0.00604644
-0.00640379
-0.00676319
-0.00712198
-0.00747733
-0.00782714
-0.00816918
-0.00850153
-0.00882359
-0.00913447
-0.00943555
-0.00972876
-0.0100174
-0.010306
-0.0106016
-0.0109144
-0.0112551
-0.0116378
-0.0120821
-0.0126084
-0.0132428
-0.0140167
-0.0149632
-0.0161272
-0.017557
-0.019308
-0.0214473
-0.0240457
-0.0271831
-0.030961
-0.0354555
-0.0408176
-0.0470612
-0.0544644
-0.0628112
-0.0727145
-0.0833018
-0.0960584
-0.10852
-0.124247
-0.1375
-0.155896
-0.16811
-0.188642
-0.197471
-0.219187
-0.223679
-0.23212
-0.000450233
-0.000473402
-0.000485214
-0.000497771
-0.000512883
-0.000528409
-0.000544753
-0.000562189
-0.000580643
-0.000600132
-0.000620703
-0.000642373
-0.000665165
-0.000689086
-0.000714168
-0.000740437
-0.000767927
-0.000796691
-0.000826802
-0.000858353
-0.000891468
-0.000926301
-0.000963049
-0.00100195
-0.0010433
-0.00108745
-0.0011348
-0.00118583
-0.00124109
-0.0013012
-0.00136685
-0.00143881
-0.00151787
-0.00160492
-0.00170087
-0.00180663
-0.00192313
-0.00205127
-0.00219186
-0.00234564
-0.00251322
-0.002695
-0.00289125
-0.00310193
-0.00332674
-0.00356514
-0.00381627
-0.00407883
-0.00435136
-0.00463207
-0.00491871
-0.00520893
-0.00550043
-0.00579031
-0.00607606
-0.00635476
-0.0066244
-0.00688266
-0.00712768
-0.00735872
-0.00757501
-0.00777796
-0.00796847
-0.00815036
-0.00832851
-0.00850901
-0.00870081
-0.00891564
-0.00916722
-0.00947427
-0.00985653
-0.0103397
-0.0109548
-0.0117364
-0.01273
-0.0139808
-0.015548
-0.0174991
-0.0199083
-0.0228601
-0.0264573
-0.0307906
-0.0360091
-0.0421547
-0.0494974
-0.0578706
-0.0678525
-0.0786501
-0.0917003
-0.104609
-0.120915
-0.134824
-0.154084
-0.167088
-0.18854
-0.198279
-0.220507
-0.226147
-0.234917
-0.000402339
-0.000424911
-0.000436595
-0.000448365
-0.000462526
-0.000476976
-0.00049201
-0.000507936
-0.000524689
-0.000542277
-0.000560742
-0.000580094
-0.000600348
-0.000621513
-0.000643603
-0.000666628
-0.000690628
-0.000715636
-0.000741708
-0.00076892
-0.000797377
-0.000827208
-0.000858582
-0.000891706
-0.000926831
-0.000964261
-0.00100435
-0.00104752
-0.00109425
-0.00114507
-0.00120057
-0.00126143
-0.00132833
-0.00140202
-0.00148327
-0.00157285
-0.00167153
-0.00178004
-0.001899
-0.002029
-0.00217044
-0.00232358
-0.00248848
-0.002665
-0.00285265
-0.0030508
-0.00325842
-0.00347408
-0.00369637
-0.00392326
-0.00415268
-0.00438212
-0.00460922
-0.00483112
-0.00504523
-0.00524892
-0.00543998
-0.0056159
-0.00577492
-0.0059163
-0.00603943
-0.0061451
-0.00623403
-0.00630981
-0.00637744
-0.00644254
-0.0065138
-0.00660217
-0.00672063
-0.00688831
-0.007124
-0.00745247
-0.00790498
-0.00851618
-0.00933037
-0.0103939
-0.0117667
-0.0135154
-0.0157222
-0.0184686
-0.0218636
-0.0260115
-0.0310628
-0.0370765
-0.0443247
-0.0526911
-0.0627215
-0.0737045
-0.0870251
-0.10039
-0.117266
-0.13188
-0.152029
-0.165899
-0.188376
-0.199117
-0.221981
-0.228865
-0.238353
-0.000354515
-0.000376445
-0.000387958
-0.000398975
-0.000412185
-0.000425576
-0.000439321
-0.000453756
-0.000468834
-0.000484546
-0.000500924
-0.000517986
-0.000535733
-0.000554167
-0.000573289
-0.000593107
-0.000613642
-0.000634919
-0.000656977
-0.000679873
-0.000703691
-0.000728537
-0.000754548
-0.000781896
-0.000810796
-0.000841509
-0.000874335
-0.000909629
-0.000947799
-0.000989307
-0.00103466
-0.0010844
-0.00113914
-0.00119948
-0.00126606
-0.00133953
-0.00142047
-0.00150948
-0.00160701
-0.00171346
-0.00182912
-0.00195402
-0.0020881
-0.00223103
-0.00238223
-0.00254091
-0.00270587
-0.0028757
-0.00304885
-0.00322321
-0.00339666
-0.00356667
-0.00373081
-0.00388629
-0.00403038
-0.00416066
-0.00427454
-0.00436976
-0.00444438
-0.00449744
-0.00452851
-0.0045378
-0.00452623
-0.00449733
-0.00445499
-0.00440451
-0.00435504
-0.00431635
-0.00430087
-0.00432687
-0.00441318
-0.00458403
-0.00486999
-0.00530603
-0.00593318
-0.00680152
-0.00797122
-0.00950638
-0.0114923
-0.0140193
-0.017193
-0.0211258
-0.0259794
-0.0318305
-0.0389543
-0.0472654
-0.057313
-0.0684546
-0.0820145
-0.0958347
-0.113267
-0.128628
-0.149702
-0.164512
-0.188083
-0.199944
-0.223649
-0.23187
-0.242829
-0.000306801
-0.000328058
-0.000339357
-0.000349638
-0.000361907
-0.000374251
-0.000386725
-0.000399695
-0.00041312
-0.000426981
-0.000441306
-0.000456102
-0.000471365
-0.000487093
-0.000503283
-0.000519927
-0.000537029
-0.000554605
-0.000572678
-0.000591286
-0.000610488
-0.000630369
-0.000651036
-0.000672627
-0.000695318
-0.000719321
-0.000744886
-0.00077231
-0.000801929
-0.000834129
-0.000869325
-0.000907978
-0.000950576
-0.000997615
-0.0010496
-0.00110703
-0.00117038
-0.00124006
-0.00131637
-0.00139959
-0.00148981
-0.00158691
-0.00169067
-0.00180065
-0.00191609
-0.00203606
-0.00215932
-0.00228438
-0.00240943
-0.00253249
-0.00265128
-0.00276322
-0.00286589
-0.00295655
-0.00303224
-0.00309049
-0.00312875
-0.0031448
-0.00313663
-0.003103
-0.00304315
-0.00295748
-0.00284636
-0.00271331
-0.00256186
-0.00239646
-0.00222602
-0.00206006
-0.00191047
-0.00179334
-0.00172818
-0.00173931
-0.00185429
-0.00210965
-0.00254542
-0.00320965
-0.00416628
-0.0054772
-0.0072279
-0.00951595
-0.0124482
-0.0161412
-0.0207643
-0.0264233
-0.033379
-0.0416049
-0.0516191
-0.0628848
-0.0766561
-0.0909031
-0.108896
-0.125049
-0.147069
-0.162895
-0.187659
-0.200715
-0.225441
-0.235142
-0.247606
-0.000259233
-0.000279792
-0.000290831
-0.000300406
-0.000311743
-0.000323043
-0.000334269
-0.00034579
-0.000357582
-0.00036962
-0.000381916
-0.000394478
-0.000407299
-0.000420355
-0.000433639
-0.00044714
-0.000460845
-0.000474754
-0.000488874
-0.000503225
-0.000517845
-0.000532788
-0.000548137
-0.000563995
-0.000580498
-0.000597812
-0.000616135
-0.000635708
-0.000656799
-0.000679715
-0.000704793
-0.000732396
-0.000762906
-0.000796711
-0.000834197
-0.000875721
-0.00092163
-0.000972188
-0.00102756
-0.00108784
-0.00115301
-0.00122277
-0.00129677
-0.00137442
-0.00145485
-0.00153699
-0.00161945
-0.0017007
-0.00177885
-0.00185177
-0.00191724
-0.00197258
-0.00201519
-0.00204238
-0.00205126
-0.00203918
-0.00200348
-0.00194192
-0.00185244
-0.00173354
-0.00158434
-0.00140503
-0.00119584
-0.000959464
-0.000699364
-0.000419827
-0.000128676
0.000165096
0.00044959
0.000710098
0.000927452
0.00107822
0.00113673
0.00106728
0.000828732
0.000374523
-0.000358812
-0.00143453
-0.00293769
-0.00496772
-0.00763785
-0.0110713
-0.0154355
-0.0208584
-0.0276126
-0.0356986
-0.0456383
-0.0569817
-0.0709161
-0.0855842
-0.10411
-0.12108
-0.144075
-0.160985
-0.187118
-0.201371
-0.227293
-0.238466
-0.252634
-0.000211851
-0.000231691
-0.000242429
-0.000251305
-0.000261721
-0.000271988
-0.000281988
-0.000292087
-0.000302269
-0.000312504
-0.000322801
-0.000333163
-0.000343567
-0.000353986
-0.000364406
-0.000374798
-0.000385142
-0.000395421
-0.000405625
-0.000415756
-0.00042583
-0.000435873
-0.00044594
-0.000456098
-0.000466444
-0.000477103
-0.00048822
-0.000499977
-0.000512577
-0.000526256
-0.000541265
-0.000557877
-0.000576375
-0.000597042
-0.000620142
-0.000645921
-0.000674586
-0.000706255
-0.000740976
-0.00077867
-0.00081916
-0.000862092
-0.000906918
-0.000952889
-0.000999026
-0.00104415
-0.0010868
-0.00112531
-0.0011577
-0.00118171
-0.0011951
-0.00119511
-0.00117924
-0.00114455
-0.00108818
-0.00100738
-0.000899372
-0.000761768
-0.000592483
-0.000389937
-0.000153035
0.000118717
0.000424765
0.000763107
0.00113094
0.00152368
0.00193461
0.00235578
0.0027757
0.0031801
0.00355047
0.00386593
0.00410012
0.00421875
0.0041827
0.00394444
0.00344346
0.00261325
0.00137013
-0.000385183
-0.00277091
-0.00591869
-0.0099944
-0.0151482
-0.0216534
-0.0295556
-0.0393683
-0.0507295
-0.0647956
-0.0798421
-0.0988792
-0.116676
-0.140688
-0.158748
-0.18633
-0.201857
-0.229164
-0.241733
-0.257688
-0.000164684
-0.000183788
-0.000194195
-0.000202382
-0.000211884
-0.000221131
-0.00022992
-0.000238612
-0.000247212
-0.000255674
-0.000264004
-0.000272191
-0.000280208
-0.000288033
-0.000295625
-0.000302949
-0.00030997
-0.000316659
-0.00032299
-0.000328943
-0.000334509
-0.000339694
-0.000344522
-0.000349022
-0.000353256
-0.000357304
-0.00036126
-0.00036525
-0.000369413
-0.000373913
-0.000378923
-0.000384629
-0.000391218
-0.000398866
-0.000407736
-0.000417947
-0.000429579
-0.000442631
-0.000457007
-0.00047249
-0.000488762
-0.000505334
-0.000521544
-0.000536526
-0.000549149
-0.000558137
-0.000561881
-0.000558649
-0.000546378
-0.00052273
-0.000485372
-0.00043158
-0.000358639
-0.000263556
-0.000143463
4.56725e-06
0.000183197
0.000395078
0.000642541
0.000927146
0.00125034
0.00161281
0.00201443
0.00245344
0.00292766
0.00343278
0.00396329
0.00451085
0.00506535
0.00561395
0.00613872
0.00661935
0.00703117
0.0073414
0.00751181
0.00749445
0.00723172
0.00665677
0.00568654
0.00422274
0.00213918
-0.00069299
-0.00445328
-0.00930018
-0.0155142
-0.0231833
-0.0328164
-0.0441398
-0.0582831
-0.0736422
-0.093164
-0.111785
-0.136875
-0.156124
-0.185341
-0.202107
-0.231037
-0.245029
-0.262689
-0.00011776
-0.000136121
-0.000146165
-0.000153672
-0.000162268
-0.000170501
-0.000178098
-0.00018541
-0.000192449
-0.000199164
-0.000205559
-0.000211608
-0.000217282
-0.000222542
-0.00022734
-0.000231638
-0.00023538
-0.000238522
-0.000241023
-0.000242843
-0.000243952
-0.000244325
-0.00024396
-0.000242855
-0.000241027
-0.000238517
-0.00023537
-0.000231655
-0.00022745
-0.000222847
-0.000217946
-0.000212848
-0.000207646
-0.000202424
-0.000197232
-0.000192072
-0.000186911
-0.000181625
-0.000175987
-0.000169658
-0.000162186
-0.000152951
-0.000141159
-0.000125832
-0.000105709
-7.93931e-05
-4.51936e-05
-1.232e-06
5.45259e-05
0.000124591
0.000211376
0.000317592
0.000446229
0.00060016
0.000782403
0.000996015
0.00124365
0.00152805
0.00185192
0.00221702
0.00262499
0.00307648
0.00357206
0.00411038
0.00468935
0.00530585
0.00595475
0.00662809
0.00731703
0.00800922
0.00868856
0.00933575
0.00992665
0.0104301
0.0108092
0.0110184
0.0110011
0.0106907
0.0100044
0.00884423
0.00708336
0.00458996
0.00117588
-0.00332908
-0.0092029
-0.0165932
-0.0259899
-0.0372023
-0.0513484
-0.0669719
-0.0869583
-0.106352
-0.132561
-0.153065
-0.184072
-0.202109
-0.232967
-0.248208
-0.267998
-7.1123e-05
-8.87206e-05
-9.83652e-05
-0.000105207
-0.000112907
-0.000120134
-0.000126558
-0.00013251
-0.000138015
-0.000143014
-0.000147503
-0.000151447
-0.00015481
-0.000157543
-0.000159594
-0.000160906
-0.000161414
-0.000161057
-0.000159775
-0.000157513
-0.000154214
-0.000149832
-0.000144327
-0.000137671
-0.000129845
-0.000120843
-0.000110662
-9.93158e-05
-8.68254e-05
-7.32136e-05
-5.85045e-05
-4.27253e-05
-2.58765e-05
-7.94493e-06
1.11222e-05
3.14337e-05
5.3128e-05
7.64424e-05
0.000101731
0.000129469
0.000160197
0.000194705
0.000233881
0.000278834
0.00033095
0.000391682
0.000462841
0.000546411
0.000644598
0.000759849
0.000894763
0.00105213
0.00123491
0.00144613
0.00168892
0.00196642
0.00228144
0.00263686
0.00303543
0.00347922
0.00397011
0.00450922
0.00509714
0.00573324
0.00641565
0.00714188
0.00790755
0.00870577
0.00952833
0.010364
0.0111978
0.0120113
0.0127817
0.0134801
0.0140706
0.0145097
0.0147427
0.0147046
0.0143131
0.0134686
0.0120486
0.00991395
0.00687831
0.00275545
-0.00274364
-0.00978586
-0.0188877
-0.0299195
-0.0440029
-0.0598189
-0.080204
-0.100361
-0.127674
-0.149491
-0.182482
-0.201823
-0.235125
-0.251364
-0.272888
-2.47858e-05
-4.16163e-05
-5.08443e-05
-5.70219e-05
-6.3828e-05
-7.00633e-05
-7.53308e-05
-7.99453e-05
-8.3943e-05
-8.72546e-05
-8.98629e-05
-9.17368e-05
-9.28279e-05
-9.30785e-05
-9.24241e-05
-9.07944e-05
-8.81153e-05
-8.43099e-05
-7.92988e-05
-7.30061e-05
-6.53565e-05
-5.6277e-05
-4.56964e-05
-3.35547e-05
-1.97991e-05
-4.37535e-06
1.27624e-05
3.1651e-05
5.23312e-05
7.48467e-05
9.9241e-05
0.000125568
0.000153913
0.000184375
0.000217109
0.000252321
0.000290264
0.000331288
0.000375859
0.000424577
0.000478079
0.000537276
0.000603206
0.000677073
0.000760382
0.00085466
0.000961828
0.00108401
0.00122343
0.0013827
0.0015644
0.00177151
0.002007
0.00227409
0.00257585
0.00291555
0.00329625
0.0037209
0.0041925
0.0047133
0.00528541
0.00591025
0.00658878
0.00732077
0.00810543
0.00893994
0.00982091
0.0107427
0.0116978
0.0126757
0.0136632
0.0146432
0.0155935
0.0164872
0.0172916
0.0179632
0.0184493
0.0186892
0.0186007
0.018084
0.0170195
0.0152661
0.0126356
0.00893417
0.00385704
-0.00278355
-0.0115163
-0.0223057
-0.0362295
-0.0521567
-0.0728616
-0.093761
-0.122151
-0.145331
-0.180412
-0.201189
-0.237365
-0.25448
-0.278479
5.16206e-06
-3.62207e-06
-9.14229e-06
-1.50668e-05
-2.03157e-05
-2.44451e-05
-2.7743e-05
-3.02536e-05
-3.1908e-05
-3.2674e-05
-3.25179e-05
-3.13739e-05
-2.91815e-05
-2.5865e-05
-2.13413e-05
-1.55248e-05
-8.32295e-06
3.62822e-07
1.06265e-05
2.25689e-05
3.62835e-05
5.18702e-05
6.94243e-05
8.90361e-05
0.0001108
0.000134806
0.000161139
0.000189907
0.000221206
0.00025515
0.000291878
0.000331542
0.000374341
0.000420509
0.000470359
0.000524251
0.00058264
0.000646104
0.000715331
0.000791112
0.000874482
0.000966514
0.00106855
0.00118224
0.00130922
0.00145145
0.00161114
0.00179068
0.00199271
0.00221999
0.00247543
0.00276218
0.00308358
0.00344274
0.00384309
0.00428783
0.00478004
0.0053228
0.00591875
0.0065703
0.00727913
0.00804642
0.00887259
0.00975724
0.0106985
0.0116936
0.0127374
0.0138231
0.0149426
0.0160827
0.0172279
0.0183582
0.0194482
0.0204669
0.0213726
0.0221159
0.0226378
0.0228584
0.0226815
0.0219873
0.0206367
0.0184344
0.0151832
0.010576
0.00439179
-0.0039026
-0.0143475
-0.0280322
-0.0439703
-0.0649111
-0.0864837
-0.115972
-0.140523
-0.177798
-0.200134
-0.239597
-0.257507
-0.284686
4.32746e-05
3.84066e-05
3.335e-05
2.90731e-05
2.60636e-05
2.40624e-05
2.30103e-05
2.29829e-05
2.40311e-05
2.61881e-05
2.9524e-05
3.41164e-05
4.0049e-05
4.74161e-05
5.63197e-05
6.68648e-05
7.91674e-05
9.33413e-05
0.000109509
0.000127791
0.000148312
0.000171201
0.000196585
0.000224597
0.000255373
0.000289046
0.00032578
0.000365735
0.000409087
0.000456043
0.000506844
0.000561768
0.000621135
0.00068535
0.000754886
0.000830288
0.00091223
0.00100152
0.00109905
0.00120597
0.00132348
0.00145299
0.00159626
0.00175502
0.00193137
0.00212758
0.00234608
0.00258966
0.00286118
0.00316363
0.00350024
0.00387439
0.00428938
0.00474868
0.00525577
0.0058139
0.00642609
0.00709542
0.00782447
0.00861542
0.00946969
0.0103882
0.0113711
0.0124171
0.0135244
0.0146884
0.0159033
0.0171621
0.0184537
0.0197632
0.0210723
0.0223582
0.0235917
0.0247329
0.0257361
0.0265443
0.0270801
0.0272506
0.0269387
0.026007
0.0242593
0.0214912
0.0173955
0.0117242
0.00393355
-0.00608907
-0.0194281
-0.0352779
-0.0563481
-0.078482
-0.109035
-0.134997
-0.174627
-0.198594
-0.241718
-0.260448
-0.291819
7.80859e-05
7.61831e-05
7.54478e-05
7.58272e-05
7.74007e-05
8.02234e-05
8.43442e-05
8.98349e-05
9.67834e-05
0.000105286
0.000115447
0.000127382
0.000141215
0.000157072
0.000175094
0.000195417
0.000218193
0.000243573
0.000271715
0.000302781
0.000336942
0.000374384
0.000415284
0.000459855
0.00050832
0.000560922
0.000617939
0.000679675
0.000746495
0.000818815
0.000897109
0.000981955
0.001074
0.001174
0.00128289
0.00140165
0.00153151
0.00167383
0.00183009
0.00200213
0.00219181
0.00240129
0.00263296
0.00288933
0.00317333
0.00348777
0.00383585
0.00422086
0.00464626
0.00511557
0.00563221
0.00619989
0.00682213
0.007502
0.00824287
0.00904764
0.00991876
0.0108582
0.0118671
0.0129463
0.0140951
0.0153125
0.0165949
0.0179375
0.019334
0.0207744
0.0222468
0.0237335
0.0252136
0.0266609
0.0280386
0.0293024
0.030399
0.0312561
0.0317809
0.0318614
0.0313621
0.0300909
0.0278355
0.0242921
0.0191906
0.0119745
0.00247133
-0.0104291
-0.026065
-0.0471443
-0.0697592
-0.101267
-0.128659
-0.170778
-0.196494
-0.243673
-0.263219
-0.299533
0.000125869
0.000126386
0.000128177
0.000131319
0.000135886
0.000141928
0.000149532
0.000158793
0.000169816
0.000182719
0.000197631
0.00021469
0.00023404
0.00025584
0.000280249
0.000307442
0.000337596
0.000370901
0.000407554
0.000447763
0.000491755
0.000539759
0.000592035
0.000648863
0.000710547
0.00077743
0.000849893
0.000928371
0.00101337
0.00110545
0.00120526
0.00131356
0.00143121
0.0015592
0.00169866
0.00185089
0.00201733
0.00219961
0.00239963
0.00261934
0.00286101
0.00312712
0.0034203
0.00374344
0.00409955
0.00449192
0.00492394
0.00539912
0.00592108
0.00649348
0.0071201
0.00780456
0.00855044
0.00936104
0.0102396
0.011189
0.0122114
0.0133088
0.0144822
0.0157318
0.017057
0.0184555
0.0199236
0.0214558
0.0230439
0.0246767
0.0263394
0.0280128
0.029672
0.0312851
0.0328102
0.0341962
0.035376
0.0362616
0.0367435
0.0366862
0.035909
0.0341969
0.0312427
0.0267581
0.0201811
0.0112863
-0.00105552
-0.0163389
-0.0372907
-0.0602251
-0.0926375
-0.121402
-0.166087
-0.193716
-0.245384
-0.265789
-0.307485
0.000176858
0.00018003
0.000184709
0.000190983
0.000198914
0.000208588
0.000220115
0.00023361
0.000249202
0.000267034
0.000287258
0.000310036
0.000335543
0.000363963
0.000395492
0.000430333
0.000468708
0.000510847
0.000556995
0.000607417
0.00066239
0.000722227
0.000787259
0.000857846
0.000934399
0.00101737
0.00110726
0.00120466
0.0013102
0.00142464
0.0015488
0.00168365
0.00183027
0.00198986
0.00216386
0.00235378
0.00256136
0.00278854
0.00303741
0.00331032
0.00360981
0.00393866
0.0042998
0.00469634
0.00513167
0.00560924
0.00613276
0.0067059
0.00733239
0.00801629
0.00876127
0.0095712
0.0104497
0.0114001
0.0124258
0.0135294
0.0147131
0.0159787
0.017327
0.018758
0.0202702
0.0218614
0.0235269
0.02526
0.0270513
0.0288875
0.0307525
0.0326225
0.0344688
0.036254
0.0379298
0.0394324
0.0406809
0.04157
0.0419681
0.0417003
0.0405525
0.0382192
0.034402
0.0285365
0.0203412
0.00867143
-0.00612523
-0.0267809
-0.0499114
-0.0830468
-0.113133
-0.160427
-0.190139
-0.246692
-0.268049
-0.316104