/*--------------------------------*- C++ -*----------------------------------*\
  =========                 |
  \\      /  F ield         | OpenFOAM: The Open Source CFD Toolbox
   \\    /   O peration     | Website:  https://openfoam.org
    \\  /    A nd           | Version:  9
     \\/     M anipulation  |
\*---------------------------------------------------------------------------*/
FoamFile
{
    format      ascii;
    class       surfaceScalarField;
    location    "2250";
    object      phi;
}
// * * * * * * * * * * * * * * * * * * * * * * * * * * * * * * * * * * * * * //

dimensions      [0 3 -1 0 0 0 0];

internalField   nonuniform List<scalar> 
26826
(
0.00499729
-0.49069
0.490046
0.00522428
-0.462642
0.462415
0.00528082
-0.436343
0.436287
0.00519909
-0.411616
0.411698
0.00505032
-0.388257
0.388405
0.00483284
-0.366272
0.366489
0.00465129
-0.345559
0.34574
0.00440115
-0.325981
0.326231
0.00418648
-0.307575
0.30779
0.00393773
-0.290168
0.290417
0.00372421
-0.27376
0.273974
0.00351113
-0.258284
0.258497
0.00326392
-0.24367
0.243918
0.00308627
-0.229919
0.230097
0.00290899
-0.216927
0.217104
0.00270779
-0.204649
0.204851
0.00253802
-0.193093
0.193263
0.00237543
-0.182183
0.182345
0.00222695
-0.171894
0.172042
0.00208214
-0.162178
0.162323
0.0019514
-0.153018
0.153149
0.00182433
-0.144373
0.1445
0.00170439
-0.136218
0.136338
0.0015881
-0.128523
0.128639
0.00148239
-0.121266
0.121372
0.00138034
-0.114417
0.114519
0.00128886
-0.107959
0.10805
0.00119756
-0.10186
0.101951
0.00111336
-0.096113
0.0961972
0.00103628
-0.090688
0.0907651
0.000959358
-0.0855673
0.0856442
0.000889519
-0.0807405
0.0808103
0.000823269
-0.076187
0.0762532
0.000760578
-0.0718895
0.0719522
0.000701467
-0.0678378
0.067897
0.000645834
-0.0640146
0.0640703
0.00059372
-0.0604062
0.0604583
0.000545031
-0.0570056
0.0570543
0.000499704
-0.0537991
0.0538445
0.000454297
-0.0507694
0.0508148
0.000412152
-0.0479165
0.0479586
0.000373317
-0.0452232
0.045262
0.000334182
-0.0426823
0.0427215
0.000298231
-0.0402906
0.0403266
0.000265427
-0.0380307
0.0380635
0.000232253
-0.0358989
0.0359321
0.000202176
-0.0338918
0.0339219
0.000171738
-0.0319955
0.032026
0.000140854
-0.0302064
0.0302373
0.000113063
-0.0285245
0.0285523
8.49044e-05
-0.0269287
0.0269569
5.99664e-05
-0.0254331
0.025458
3.46466e-05
-0.024013
0.0240383
1.2549e-05
-0.0226825
0.0227046
-1.22059e-05
-0.0214176
0.0214424
-3.47015e-05
-0.0202294
0.0202519
-5.6254e-05
-0.0191069
0.0191284
-7.71139e-05
-0.0180469
0.0180677
-9.68106e-05
-0.0170468
0.0170665
-0.000115525
-0.0161022
0.0161209
-0.000133535
-0.0152106
0.0152286
-0.000150579
-0.0143686
0.0143856
-0.000166765
-0.0135736
0.0135898
-0.000181624
-0.0128232
0.012838
-0.000196243
-0.012114
0.0121286
-0.000209438
-0.0114449
0.0114581
-0.000221588
-0.0108126
0.0108248
-0.000232701
-0.0102161
0.0102272
-0.000242996
-0.00965277
0.00966306
-0.000252522
-0.00912105
0.00913058
-0.000261339
-0.00861887
0.00862769
-0.000268676
-0.00814547
0.00815281
-0.000275425
-0.00769848
0.00770523
-0.000281491
-0.00727727
0.00728333
-0.000286483
-0.00687933
0.00688432
-0.000290216
-0.00650516
0.00650889
-0.00029404
-0.0061513
0.00615512
-0.000296703
-0.00581867
0.00582134
-0.000298213
-0.00550536
0.00550687
-0.000299719
-0.00520917
0.00521068
-0.000300164
-0.00493172
0.00493216
-0.000299603
-0.00466925
0.00466869
-0.000298833
-0.00442229
0.00442152
-0.000296714
-0.00419044
0.00418832
-0.00029413
-0.00397178
0.0039692
-0.000289919
-0.0037664
0.00376219
-0.000285246
-0.00357176
0.00356708
-0.000280097
-0.00338895
0.0033838
-0.000272673
-0.00321677
0.00320935
-0.000264096
-0.0030544
0.00304582
-0.000253872
-0.0029002
0.00288997
-0.000241389
-0.00275635
0.00274386
-0.000226425
-0.00261767
0.00260271
-0.000208745
-0.00248964
0.00247196
-0.000187018
-0.00236257
0.00234084
-0.000164646
-0.00226968
0.00224731
-0.000137369
-0.0022094
0.00218212
-7.20561e-05
-0.00209009
0.00202478
-0.00110702
0.00103497
0.01291
-0.490575
0.0126201
-0.462352
0.0121933
-0.435917
0.0116631
-0.411086
0.0111344
-0.387728
0.0106063
-0.365744
0.0100446
-0.344997
0.00951821
-0.325455
0.00895794
-0.307015
0.00846738
-0.289677
0.00797738
-0.27327
0.00748781
-0.257795
0.00706787
-0.24325
0.00664827
-0.2295
0.00626361
-0.216542
0.00589309
-0.204279
0.00554705
-0.192747
0.0052151
-0.181851
0.00490069
-0.171579
0.00460725
-0.161884
0.00432785
-0.152738
0.00406596
-0.144111
0.00381808
-0.13597
0.0035877
-0.128292
0.00336441
-0.121043
0.00315859
-0.114211
0.00295988
-0.10776
0.00277864
-0.101678
0.00260449
-0.0959389
0.00243741
-0.0905209
0.00228432
-0.0854142
0.00214176
-0.0805979
0.00200277
-0.076048
0.00187427
-0.071761
0.0017493
-0.0677129
0.00163476
-0.0639001
0.00152714
-0.0602986
0.00142298
-0.0569015
0.00132566
-0.0537018
0.00123517
-0.0506789
0.00114801
-0.0478293
0.00106407
-0.0451392
0.00099032
-0.0426086
0.000912812
-0.0402131
0.000845388
-0.0379632
0.000777613
-0.0358312
0.000716465
-0.0338307
0.000654934
-0.031934
0.000599989
-0.0301515
0.000541178
-0.0284657
0.000492435
-0.02688
0.00044337
-0.025384
0.000397471
-0.0239671
0.000347855
-0.0226328
0.00030714
-0.0213769
0.000266231
-0.0201885
0.000227226
-0.0190679
0.000190391
-0.01801
0.000154861
-0.0170113
0.000121535
-0.0160688
8.97237e-05
-0.0151788
5.95497e-05
-0.0143384
3.12387e-05
-0.0135453
4.33897e-06
-0.0127963
-2.04379e-05
-0.0120892
-4.41651e-05
-0.0114211
-6.61676e-05
-0.0107906
-8.68496e-05
-0.0101955
-0.000105864
-0.00963375
-0.000123573
-0.00910334
-0.000140114
-0.00860233
-0.000154856
-0.00813073
-0.000168423
-0.00768492
-0.000181519
-0.00726417
-0.00019235
-0.00686849
-0.00020315
-0.00649436
-0.000212063
-0.00614239
-0.000220154
-0.00581058
-0.00022748
-0.00549803
-0.000232612
-0.00520404
-0.000238208
-0.00492612
-0.000242054
-0.0046654
-0.000244531
-0.00441981
-0.000246078
-0.0041889
-0.000247165
-0.0039707
-0.000247849
-0.00376571
-0.000246098
-0.00357351
-0.000242792
-0.00339226
-0.00023872
-0.00322084
-0.000232847
-0.00306027
-0.000225121
-0.00290792
-0.000215061
-0.00276641
-0.000202495
-0.00263024
-0.00018572
-0.00250642
-0.00016638
-0.00238191
-0.000145271
-0.00229079
-0.00012354
-0.00223113
-6.67317e-05
-0.0021469
-0.00117376
0.0208921
-0.489737
0.020016
-0.461476
0.0191405
-0.435041
0.0181963
-0.410142
0.0172876
-0.386819
0.0163451
-0.364801
0.0154725
-0.344124
0.0146006
-0.324583
0.0137985
-0.306213
0.0129969
-0.288876
0.012265
-0.272539
0.0116028
-0.257132
0.0109063
-0.242554
0.0102793
-0.228873
0.00965267
-0.215916
0.00910936
-0.203735
0.00857321
-0.192211
0.00807191
-0.181349
0.00759849
-0.171106
0.0071495
-0.161435
0.00672839
-0.152317
0.0063282
-0.143711
0.00595244
-0.135594
0.00559759
-0.127937
0.00526367
-0.120709
0.00494722
-0.113895
0.00465168
-0.107464
0.00437014
-0.101397
0.00410259
-0.0956713
0.00385596
-0.0902743
0.00361983
-0.085178
0.00339419
-0.0803723
0.00318598
-0.0758398
0.00298822
-0.0715633
0.00280437
-0.067529
0.00262749
-0.0637232
0.00246097
-0.0601321
0.00230479
-0.0567453
0.00215549
-0.0535525
0.00201645
-0.0505399
0.0018842
-0.0476971
0.00176212
-0.0450171
0.00164332
-0.0424898
0.00153464
-0.0401045
0.00142565
-0.0378543
0.00132677
-0.0357323
0.00123097
-0.0337349
0.00114179
-0.0318448
0.00105574
-0.0300654
0.000976289
-0.0283862
0.00089999
-0.0268037
0.000823327
-0.0253074
0.00075688
-0.0239006
0.000690102
-0.0225661
0.00062808
-0.0213149
0.00056866
-0.0201291
0.000511919
-0.0190111
0.000458212
-0.0179563
0.00040763
-0.0169607
0.000359339
-0.0160206
0.000313488
-0.0151329
0.000270651
-0.0142956
0.000229642
-0.0135043
0.000191418
-0.012758
0.000154924
-0.0120527
0.000120853
-0.0113871
8.89895e-05
-0.0107587
5.9321e-05
-0.0101658
3.10624e-05
-0.0096055
4.75312e-06
-0.00907703
-1.90327e-05
-0.00857855
-4.17524e-05
-0.00810801
-6.30074e-05
-0.00766366
-8.19317e-05
-0.00724525
-9.97565e-05
-0.00685067
-0.000115979
-0.00647814
-0.000130655
-0.00612771
-0.000144133
-0.00579711
-0.000156144
-0.00548602
-0.000167471
-0.00519271
-0.000177044
-0.00491655
-0.000185254
-0.00465719
-0.000192095
-0.00441297
-0.000198106
-0.00418289
-0.000202352
-0.00396645
-0.00020505
-0.00376301
-0.0002065
-0.00357206
-0.00020717
-0.00339159
-0.000205982
-0.00322203
-0.000202757
-0.00306349
-0.000197078
-0.0029136
-0.000189423
-0.00277406
-0.000179225
-0.00264044
-0.000165354
-0.00252029
-0.000148242
-0.00239902
-0.000128057
-0.00231097
-0.00011058
-0.0022486
-6.13245e-05
-0.00219615
-0.00123508
0.0289431
-0.488312
0.0275498
-0.460083
0.026122
-0.433613
0.0247982
-0.408818
0.0234752
-0.385496
0.0221874
-0.363513
0.0209694
-0.342906
0.0197866
-0.3234
0.0186735
-0.305099
0.0176301
-0.287832
0.0166218
-0.27153
0.0156484
-0.256159
0.0147446
-0.24165
0.0139103
-0.228038
0.0131109
-0.215116
0.012336
-0.202961
0.0116201
-0.191495
0.010946
-0.180675
0.0103067
-0.170466
0.0097056
-0.160834
0.00913583
-0.151748
0.00860086
-0.143176
0.00809717
-0.135091
0.00761786
-0.127458
0.00716986
-0.120261
0.00674621
-0.113471
0.00634347
-0.107062
0.00596856
-0.101022
0.00561107
-0.0953138
0.00527447
-0.0899377
0.00495876
-0.0848623
0.00466391
-0.0800774
0.00437954
-0.0755554
0.004116
-0.0712997
0.00386288
-0.0672759
0.00362709
-0.0634874
0.00340515
-0.0599101
0.00319355
-0.0565337
0.0029957
-0.0533547
0.00280814
-0.0503523
0.0026308
-0.0475198
0.00246373
-0.0448501
0.00230329
-0.0423293
0.00215304
-0.0399542
0.00201292
-0.0377141
0.0018794
-0.0355987
0.00175252
-0.033608
0.00163226
-0.0317246
0.00151855
-0.0299517
0.00141151
-0.0282792
0.00130757
-0.0266998
0.00121386
-0.0252137
0.00111977
-0.0238066
0.00103596
-0.0224823
0.000950132
-0.021229
0.000871778
-0.0200507
0.000798008
-0.0189374
0.000727527
-0.0178859
0.000660606
-0.0168938
0.000597746
-0.0159577
0.000538206
-0.0150734
0.000481653
-0.014239
0.000428792
-0.0134515
0.000378204
-0.0127074
0.000330914
-0.0120054
0.00028634
-0.0113425
0.000244462
-0.0107169
0.000205265
-0.0101266
0.000168186
-0.00956842
0.000133887
-0.00904273
0.000101245
-0.0085459
7.10436e-05
-0.00807781
4.33713e-05
-0.00763599
1.74638e-05
-0.00721934
-7.1052e-06
-0.0068261
-2.93837e-05
-0.00645586
-5.01179e-05
-0.00610697
-6.86417e-05
-0.00577858
-8.64329e-05
-0.00546823
-0.000101724
-0.00517742
-0.000115592
-0.00490268
-0.000128133
-0.00464465
-0.000139401
-0.0044017
-0.000149408
-0.00417288
-0.000157267
-0.00395859
-0.000163937
-0.00375634
-0.000169502
-0.00356649
-0.000172585
-0.00338851
-0.000173734
-0.00322088
-0.000173268
-0.00306396
-0.000170097
-0.00291678
-0.000165551
-0.00277861
-0.000157173
-0.00264882
-0.000145762
-0.0025317
-0.000130007
-0.00241478
-0.000112243
-0.00232874
-9.86377e-05
-0.00226221
-5.71201e-05
-0.00223767
-0.0012922
0.0369594
-0.486267
0.0350142
-0.458138
0.0331724
-0.431772
0.0313999
-0.407046
0.0296625
-0.383759
0.0280294
-0.36188
0.026466
-0.341343
0.0249724
-0.321906
0.0235829
-0.30371
0.022194
-0.286443
0.0209438
-0.27028
0.0197286
-0.254944
0.0186174
-0.240539
0.0175412
-0.226962
0.0165345
-0.21411
0.0155798
-0.202006
0.0146773
-0.190593
0.0138269
-0.179825
0.0130252
-0.169665
0.0122686
-0.160078
0.0115571
-0.151036
0.0108838
-0.142502
0.0102453
-0.134452
0.00964849
-0.126861
0.00908293
-0.119695
0.00854864
-0.112937
0.00804909
-0.106562
0.00757042
-0.100543
0.00712647
-0.0948699
0.0067034
-0.0895146
0.0063081
-0.084467
0.00592674
-0.0796961
0.00557659
-0.0752052
0.00524034
-0.0709635
0.0049249
-0.0669605
0.00462677
-0.0631893
0.00434591
-0.0596293
0.00408234
-0.0562701
0.00383255
-0.0531049
0.00359647
-0.0501162
0.00337411
-0.0472974
0.00316192
-0.0446379
0.00296343
-0.0421308
0.00277855
-0.0397693
0.00260032
-0.0375359
0.00243221
-0.0354306
0.00227072
-0.0334465
0.0021228
-0.0315767
0.00198155
-0.0298105
0.00184687
-0.0281445
0.00171885
-0.0265717
0.00159744
-0.0250922
0.00148283
-0.0236919
0.00137487
-0.0223743
0.00127299
-0.0211272
0.00117587
-0.0199536
0.00108343
-0.0188449
0.000996528
-0.017799
0.000914471
-0.0168117
0.000836311
-0.0158795
0.000762751
-0.0149999
0.000693078
-0.0141694
0.00062719
-0.0133856
0.000565156
-0.0126454
0.000506686
-0.011947
0.000451627
-0.0112874
0.000399763
-0.010665
0.000350889
-0.0100777
0.00030516
-0.00952269
0.000262177
-0.00899975
0.00022212
-0.00850585
0.000184349
-0.00804004
0.000148693
-0.00760033
0.000115735
-0.00718638
8.55085e-05
-0.00679587
5.71617e-05
-0.00642751
3.07584e-05
-0.00608057
5.80078e-06
-0.00575363
-1.59215e-05
-0.0054465
-3.69838e-05
-0.00515636
-5.55972e-05
-0.00488407
-7.29298e-05
-0.00462732
-8.81215e-05
-0.00438651
-0.000101643
-0.00415936
-0.0001136
-0.00394664
-0.00012366
-0.00374628
-0.000131398
-0.00355875
-0.000137968
-0.00338193
-0.000141997
-0.00321685
-0.00014427
-0.00306169
-0.000144907
-0.00291614
-0.000141715
-0.0027818
-0.000135836
-0.0026547
-0.000126953
-0.00254058
-0.000114976
-0.00242676
-9.86443e-05
-0.00234507
-8.69734e-05
-0.00227388
-5.21686e-05
-0.00227248
-0.00134437
0.0450101
-0.48367
0.0425475
-0.455675
0.0402226
-0.429447
0.0380014
-0.404824
0.0358842
-0.381642
0.0339059
-0.359902
0.0319625
-0.3394
0.0301926
-0.320137
0.0284231
-0.301941
0.0268615
-0.284882
0.0253003
-0.268719
0.0238778
-0.253521
0.0224902
-0.239151
0.0211721
-0.225644
0.019958
-0.212895
0.0188271
-0.200875
0.0177414
-0.189507
0.0167182
-0.178802
0.0157506
-0.168697
0.0148384
-0.159165
0.0139783
-0.150176
0.0131668
-0.141691
0.0124039
-0.133689
0.0116826
-0.12614
0.0110029
-0.119016
0.010358
-0.112292
0.00975124
-0.105955
0.00918265
-0.0999746
0.00864186
-0.0943291
0.00813577
-0.0890085
0.00765051
-0.0839818
0.0072034
-0.079249
0.00677365
-0.0747755
0.00637165
-0.0705615
0.00599042
-0.0665792
0.0056334
-0.0628323
0.00529369
-0.0592896
0.00497468
-0.0559511
0.00467291
-0.0528031
0.00438834
-0.0498317
0.00412092
-0.04703
0.00386723
-0.0443842
0.00362714
-0.0418908
0.0034007
-0.0395429
0.00318435
-0.0373196
0.00298511
-0.0352314
0.00279602
-0.0332574
0.0026135
-0.0313941
0.00244114
-0.0296381
0.00228232
-0.0279857
0.00213021
-0.0264196
0.00198473
-0.0249468
0.00184599
-0.0235532
0.00171745
-0.0222458
0.00159527
-0.021005
0.00147958
-0.0198379
0.00136995
-0.0187353
0.00126593
-0.0176949
0.00116745
-0.0167132
0.0010746
-0.0157867
0.000986913
-0.0149122
0.000903906
-0.0140863
0.000825436
-0.0133071
0.000751903
-0.0125719
0.000681961
-0.011877
0.000616433
-0.0112219
0.000554599
-0.0106032
0.000496045
-0.0100192
0.000441325
-0.00946797
0.000389802
-0.00894823
0.000341386
-0.00845743
0.000296286
-0.00799494
0.0002539
-0.00755795
0.00021435
-0.00714683
0.00017702
-0.00675854
0.000142387
-0.00639288
0.00011027
-0.00604845
8.06831e-05
-0.00572404
5.28645e-05
-0.00541869
2.71217e-05
-0.00513062
3.81631e-06
-0.00486076
-1.77723e-05
-0.00460573
-3.73875e-05
-0.00436689
-5.41548e-05
-0.00414259
-7.00895e-05
-0.0039307
-8.35864e-05
-0.00373279
-9.52236e-05
-0.00354712
-0.000105034
-0.00337212
-0.000111925
-0.00320996
-0.000117644
-0.00305597
-0.000119088
-0.00291469
-0.000119085
-0.0027818
-0.000116294
-0.00265749
-0.000109918
-0.00254696
-9.94431e-05
-0.00243723
-8.53308e-05
-0.00235918
-7.8287e-05
-0.00228092
-4.86067e-05
-0.00230216
-0.00139298
0.0529915
-0.480521
0.0500806
-0.452764
0.0472725
-0.426639
0.0446026
-0.402155
0.0421058
-0.379145
0.039713
-0.357509
0.0374934
-0.33718
0.0353435
-0.317987
0.0333668
-0.299964
0.0314251
-0.28294
0.0296567
-0.26695
0.0279578
-0.251822
0.0263629
-0.237557
0.024872
-0.224153
0.0234506
-0.211474
0.0220743
-0.199499
0.0208055
-0.188238
0.019606
-0.177602
0.0184759
-0.167567
0.0174117
-0.158101
0.016403
-0.149167
0.0154567
-0.140744
0.0145624
-0.132795
0.0137132
-0.125291
0.012916
-0.118218
0.0121673
-0.111543
0.0114568
-0.105245
0.010788
-0.0993057
0.0101573
-0.0936984
0.00956122
-0.0884125
0.00900333
-0.0834239
0.00846972
-0.0787154
0.00797076
-0.0742765
0.00749951
-0.0700902
0.00705596
-0.0661357
0.00663319
-0.0624095
0.00624153
-0.0588979
0.00586711
-0.0555767
0.00551335
-0.0524493
0.00518031
-0.0494986
0.00486441
-0.0467141
0.00456912
-0.0440889
0.00429096
-0.0416126
0.00402294
-0.0392749
0.00377552
-0.0370721
0.00353821
-0.0349941
0.0033145
-0.0330337
0.00310436
-0.031184
0.00290781
-0.0294416
0.00271447
-0.0277924
0.00253823
-0.0262434
0.00236863
-0.0247772
0.00221267
-0.0233972
0.00205965
-0.0220927
0.00191794
-0.0208633
0.00178264
-0.0197026
0.0016553
-0.018608
0.00153479
-0.0175744
0.00142074
-0.0165992
0.00131275
-0.0156787
0.0012107
-0.0148101
0.00111459
-0.0139902
0.0010236
-0.0132161
0.000937602
-0.0124859
0.000856904
-0.0117963
0.000780567
-0.0111456
0.00070859
-0.0105312
0.000640778
-0.00995135
0.000577249
-0.00940444
0.000517313
-0.00888829
0.000460826
-0.00840094
0.000407981
-0.00794209
0.000358725
-0.00750869
0.000311831
-0.00709994
0.000268291
-0.006715
0.000227617
-0.0063522
0.000189843
-0.00601068
0.000154218
-0.00568841
0.000121397
-0.00538587
9.06384e-05
-0.00509986
6.26617e-05
-0.00483279
3.7116e-05
-0.00458018
1.31728e-05
-0.00434295
-8.39716e-06
-0.00412102
-2.70804e-05
-0.00391202
-4.46739e-05
-0.00371519
-5.93561e-05
-0.00353244
-7.20035e-05
-0.00335948
-8.30546e-05
-0.00319891
-9.0325e-05
-0.0030487
-9.56618e-05
-0.00290936
-9.81841e-05
-0.00277928
-9.72813e-05
-0.00265839
-9.34944e-05
-0.00255074
-8.62706e-05
-0.00244445
-7.4519e-05
-0.00237093
-6.84771e-05
-0.00228697
-4.42239e-05
-0.00232641
-0.0014372
0.0609727
-0.476889
0.0575098
-0.449301
0.0542877
-0.423417
0.0512382
-0.399105
0.0483271
-0.376234
0.045589
-0.354771
0.0429896
-0.334581
0.0405634
-0.31556
0.0382413
-0.297642
0.0360924
-0.280791
0.0339784
-0.264836
0.0320377
-0.249882
0.0302355
-0.235754
0.0284681
-0.222386
0.0268394
-0.209845
0.025318
-0.197978
0.0238661
-0.186786
0.0224938
-0.17623
0.0211978
-0.166271
0.0199781
-0.156881
0.0188276
-0.148017
0.0177396
-0.139656
0.0167105
-0.131766
0.0157472
-0.124327
0.0148359
-0.117307
0.0139732
-0.110681
0.0131624
-0.104434
0.0123933
-0.0985366
0.0116726
-0.0929777
0.0109901
-0.08773
0.0103458
-0.0827795
0.0097395
-0.0781091
0.00916788
-0.0737049
0.00862742
-0.0695498
0.00811812
-0.0656264
0.00763995
-0.0619313
0.00718248
-0.0584404
0.00675612
-0.0551503
0.00635045
-0.0520437
0.00596888
-0.049117
0.00561143
-0.0463566
0.00527112
-0.0437486
0.00494791
-0.0412894
0.00464878
-0.0389757
0.00436327
-0.0367866
0.00409136
-0.0347222
0.00383655
-0.0327789
0.00359533
-0.0309428
0.00336769
-0.0292139
0.00315366
-0.0275783
0.00294977
-0.0260395
0.00275605
-0.0245835
0.00257255
-0.0232137
0.00240161
-0.0219218
0.00223891
-0.0207006
0.00208539
-0.0195491
0.00193983
-0.0184624
0.00180213
-0.0174367
0.00167247
-0.0164695
0.00154958
-0.0155558
0.00143376
-0.0146943
0.00132411
-0.0138806
0.00122071
-0.0131127
0.00112297
-0.0123881
0.00103099
-0.0117043
0.000943706
-0.0110583
0.000861969
-0.0104494
0.000785059
-0.00987444
0.000712032
-0.00933141
0.0006436
-0.00881986
0.000579395
-0.00833674
0.000518428
-0.00788113
0.000461854
-0.00745212
0.000408679
-0.00704676
0.000358789
-0.00666511
0.000311839
-0.00630525
0.000267733
-0.00596657
0.000227151
-0.00564783
0.000188986
-0.0053477
0.000154349
-0.00506522
0.000120961
-0.0047994
9.06672e-05
-0.00454989
6.27511e-05
-0.00431503
3.72188e-05
-0.00409549
1.40539e-05
-0.00388885
-6.77549e-06
-0.00369437
-2.4685e-05
-0.00351453
-4.05875e-05
-0.00334357
-5.33769e-05
-0.00318612
-6.46479e-05
-0.00303742
-7.26651e-05
-0.00290134
-7.78025e-05
-0.00277414
-8.00083e-05
-0.00265618
-7.81482e-05
-0.0025526
-7.3465e-05
-0.00244914
-6.41219e-05
-0.00238028
-6.01698e-05
-0.00229092
-4.11491e-05
-0.00234543
-0.00147835
0.0688848
-0.472739
0.0649734
-0.44539
0.0612682
-0.419711
0.05777
-0.395607
0.0545137
-0.372977
0.0514304
-0.351688
0.0484857
-0.331636
0.0457141
-0.312789
0.0431157
-0.295043
0.0406559
-0.278331
0.0383692
-0.26255
0.0361521
-0.247664
0.0340734
-0.233676
0.0321334
-0.220446
0.0302938
-0.208006
0.0285548
-0.196238
0.0269127
-0.185144
0.0253677
-0.174685
0.0239127
-0.164816
0.022534
-0.155503
0.0212384
-0.146721
0.0200121
-0.13843
0.0188586
-0.130612
0.0177709
-0.12324
0.016742
-0.116278
0.0157721
-0.109711
0.0148576
-0.10352
0.0139951
-0.0976741
0.0131811
-0.0921637
0.0124122
-0.086961
0.0116882
-0.0820556
0.0110059
-0.0774267
0.0103581
-0.0730572
0.00974843
-0.0689401
0.00917681
-0.0650548
0.00863288
-0.0613874
0.0081235
-0.0579311
0.00764176
-0.0546686
0.00718758
-0.0515895
0.00675754
-0.048687
0.00635164
-0.0459507
0.00596974
-0.0433667
0.00560853
-0.0409282
0.00526783
-0.038635
0.00494422
-0.036463
0.00464123
-0.0344192
0.00435522
-0.0324929
0.00408292
-0.0306705
0.00382417
-0.0289552
0.00358254
-0.0273367
0.00335449
-0.0258115
0.00314015
-0.0243691
0.00293595
-0.0230095
0.00274167
-0.0217275
0.00255896
-0.0205179
0.00238628
-0.0193764
0.00222312
-0.0182992
0.00206893
-0.0172825
0.00192302
-0.0163236
0.00178557
-0.0154183
0.00165531
-0.014564
0.00153246
-0.0137577
0.00141665
-0.0129969
0.00130715
-0.0122786
0.00120355
-0.0116007
0.00110638
-0.0109611
0.0010142
-0.0103573
0.0009273
-0.00978754
0.000845897
-0.00925001
0.000769224
-0.00874319
0.000696869
-0.00826438
0.00062901
-0.00781327
0.000564552
-0.00738766
0.000504428
-0.00698664
0.000447969
-0.00660865
0.000395423
-0.00625271
0.000346057
-0.00591721
0.000299482
-0.00560126
0.000256004
-0.00530422
0.000215634
-0.00502485
0.000178302
-0.00476207
0.000143348
-0.00451494
0.000111478
-0.00428316
8.19972e-05
-0.00406601
5.47135e-05
-0.00386157
3.12055e-05
-0.00367086
9.16426e-06
-0.00349248
-1.02338e-05
-0.00332418
-2.66187e-05
-0.00316974
-4.00765e-05
-0.00302397
-5.01047e-05
-0.00289131
-5.84837e-05
-0.00276576
-6.24668e-05
-0.0026522
-6.30884e-05
-0.00255198
-6.09926e-05
-0.00245123
-5.47349e-05
-0.00238654
-5.18088e-05
-0.00229384
-3.71593e-05
-0.00236008
-0.00151551
0.0767277
-0.468106
0.0723333
-0.440996
0.068214
-0.415592
0.0643361
-0.391729
0.0606656
-0.369307
0.0572025
-0.348225
0.053947
-0.328381
0.0508992
-0.309741
0.0479899
-0.292134
0.0452192
-0.275561
0.0426562
-0.259987
0.0402318
-0.24524
0.0379113
-0.231355
0.035764
-0.218298
0.0337033
-0.205945
0.0317707
-0.194306
0.0299525
-0.183326
0.0282346
-0.172967
0.0266138
-0.163195
0.025083
-0.153972
0.0236388
-0.145277
0.0222812
-0.137073
0.0209963
-0.129327
0.0197841
-0.122028
0.0186412
-0.115135
0.0175641
-0.108634
0.0165459
-0.102501
0.0155866
-0.0967147
0.0146792
-0.0912564
0.0138273
-0.086109
0.0130203
-0.0812486
0.0122618
-0.0766682
0.0115449
-0.0723402
0.0108695
-0.0682647
0.0102321
-0.0644174
0.00962933
-0.0607846
0.00906111
-0.0573628
0.00852395
-0.0541314
0.00801789
-0.0510834
0.00754284
-0.048212
0.00708841
-0.0454963
0.00666503
-0.0429433
0.00626568
-0.0405288
0.00588346
-0.0382528
0.00552531
-0.0361049
0.00519113
-0.034085
0.00486716
-0.0321689
0.00456714
-0.0303705
0.00428424
-0.0286723
0.00401499
-0.0270675
0.00375936
-0.0255558
0.00352085
-0.0241306
0.00329257
-0.0227813
0.00307968
-0.0215146
0.00287704
-0.0203152
0.00268531
-0.0191847
0.00250429
-0.0181182
0.00233362
-0.0171119
0.00217236
-0.0161623
0.00201969
-0.0152657
0.00187569
-0.0144201
0.00173942
-0.0136215
0.00161085
-0.0128683
0.00148957
-0.0121574
0.00137511
-0.0114863
0.00126719
-0.0108532
0.00116546
-0.0102555
0.00106935
-0.00969143
0.000978996
-0.00915965
0.000893522
-0.00865771
0.000813259
-0.00818412
0.000737825
-0.00773783
0.000666827
-0.00731666
0.000599919
-0.00691973
0.000537202
-0.00654594
0.000478029
-0.00619354
0.000422378
-0.00586156
0.000371232
-0.00555011
0.000322468
-0.00525546
0.000277094
-0.00497948
0.000234777
-0.00471975
0.000195896
-0.00447605
0.000160092
-0.00424736
0.000126026
-0.00403194
9.5819e-05
-0.00383136
6.76602e-05
-0.0036427
4.23801e-05
-0.0034672
2.03972e-05
-0.00330219
1.03602e-06
-0.00315038
-1.51934e-05
-0.00300774
-2.91702e-05
-0.00287733
-3.94217e-05
-0.00275551
-4.59147e-05
-0.00264571
-5.03236e-05
-0.00254757
-5.05553e-05
-0.002451
-4.54647e-05
-0.00239163
-4.55032e-05
-0.0022938
-3.39388e-05
-0.00237164
-0.00154945
0.0845014
-0.462955
0.079693
-0.436187
0.075125
-0.411024
0.070833
-0.387437
0.0667827
-0.365257
0.0629744
-0.344416
0.0594082
-0.324814
0.0559804
-0.306313
0.0527949
-0.288949
0.0497824
-0.272548
0.0469431
-0.257147
0.0442423
-0.242539
0.0417492
-0.228862
0.0393599
-0.215909
0.0370954
-0.20368
0.0349728
-0.192183
0.0329679
-0.181321
0.0310773
-0.171076
0.0292941
-0.161412
0.0276147
-0.152293
0.0260288
-0.143691
0.0245294
-0.135573
0.0231201
-0.127918
0.0217835
-0.120691
0.0205266
-0.113878
0.0193423
-0.107449
0.0182239
-0.101383
0.0171712
-0.0956621
0.0161739
-0.0902591
0.0152355
-0.0851706
0.014349
-0.0803621
0.0135109
-0.0758302
0.0127248
-0.0715541
0.0119802
-0.0675201
0.0112771
-0.0637143
0.0106155
-0.060123
0.00998838
-0.0567358
0.00939931
-0.0535424
0.00884475
-0.0505289
0.00831781
-0.047685
0.0078253
-0.0450038
0.00735346
-0.0424715
0.00691258
-0.040088
0.00649574
-0.037836
0.00610642
-0.0357156
0.00573074
-0.0337093
0.00538258
-0.0318208
0.00505147
-0.0300394
0.00473752
-0.0283583
0.00444408
-0.026774
0.00416431
-0.0252761
0.00389818
-0.0238645
0.00365263
-0.0225357
0.00341496
-0.021277
0.0031924
-0.0200926
0.00298283
-0.0189751
0.00278431
-0.0179197
0.00259675
-0.0169243
0.00241925
-0.0159848
0.00225206
-0.0150985
0.0020941
-0.0142621
0.00194512
-0.0134725
0.00180432
-0.0127275
0.00167104
-0.0120241
0.00154568
-0.0113609
0.00142687
-0.0107344
0.00131506
-0.0101437
0.00121009
-0.00958645
0.0011105
-0.00906007
0.00101696
-0.00856417
0.000928578
-0.00809574
0.000845683
-0.00765494
0.000767525
-0.0072385
0.000693987
-0.00684619
0.000624703
-0.00647665
0.000559698
-0.00612853
0.000499158
-0.00580102
0.000441349
-0.0054923
0.000388004
-0.00520211
0.000338035
-0.00492951
0.000291467
-0.00467318
0.000247512
-0.0044321
0.000206932
-0.00420678
0.000169913
-0.00399492
0.000134909
-0.00379636
0.000103331
-0.00361112
7.51897e-05
-0.00343906
4.95122e-05
-0.00327652
2.72158e-05
-0.00312808
7.58743e-06
-0.00298811
-8.44519e-06
-0.0028613
-2.12537e-05
-0.0027427
-3.08121e-05
-0.00263615
-3.69995e-05
-0.00254139
-3.95364e-05
-0.00244846
-3.75908e-05
-0.00239357
-3.90273e-05
-0.00229237
-3.09632e-05
-0.00237971
-0.00158041
0.0922059
-0.457356
0.0869143
-0.430896
0.0819669
-0.406077
0.0772606
-0.382731
0.0728652
-0.360861
0.0686771
-0.340228
0.0647656
-0.320903
0.0610616
-0.302609
0.0575998
-0.285487
0.054311
-0.26926
0.0511953
-0.254032
0.0482873
-0.239631
0.0455177
-0.226093
0.0428867
-0.213278
0.0404632
-0.201257
0.0381472
-0.189867
0.0359626
-0.179136
0.0339027
-0.169017
0.0319605
-0.15947
0.0301256
-0.150458
0.0283945
-0.14196
0.0267639
-0.133943
0.0252232
-0.126377
0.0237726
-0.11924
0.0224015
-0.112507
0.0211101
-0.106158
0.0198914
-0.100164
0.0187384
-0.0945091
0.0176547
-0.0891754
0.0166298
-0.0841458
0.0156638
-0.0793961
0.0147531
-0.0749195
0.0138943
-0.0706953
0.0130805
-0.0667063
0.0123151
-0.0629489
0.0115947
-0.0594025
0.0109123
-0.0560533
0.0102713
-0.0529014
0.00966136
-0.049919
0.00908936
-0.047113
0.00854845
-0.0444629
0.00804194
-0.041965
0.00755952
-0.0396055
0.00710813
-0.0373846
0.0066773
-0.0352847
0.00627051
-0.0333025
0.00589118
-0.0314414
0.005529
-0.0296772
0.00518735
-0.0280167
0.00486635
-0.026453
0.00456239
-0.0249721
0.00427561
-0.0235777
0.0040025
-0.0222626
0.00374757
-0.021022
0.00350599
-0.0198511
0.00327685
-0.018746
0.0030611
-0.017704
0.00285707
-0.0167203
0.0026645
-0.0157923
0.00248257
-0.0149166
0.00231054
-0.0140901
0.0021484
-0.0133103
0.00199495
-0.0125741
0.00185045
-0.0118796
0.00171423
-0.0112247
0.00158558
-0.0106057
0.00146391
-0.0100221
0.00134886
-0.0094714
0.00124091
-0.00895212
0.00113918
-0.00846244
0.00104307
-0.00799964
0.000952405
-0.00756427
0.000867127
-0.00715322
0.000787058
-0.00676613
0.000712014
-0.00640161
0.000640742
-0.00605726
0.000573971
-0.00573425
0.000511635
-0.00542996
0.000453014
-0.00514349
0.000397711
-0.0048742
0.000346102
-0.00462157
0.000298209
-0.00438421
0.000253332
-0.0041619
0.00021221
-0.0039538
0.000174668
-0.00375882
0.000139691
-0.00357614
0.000107177
-0.00340655
7.84886e-05
-0.00324783
5.25972e-05
-0.00310219
3.01941e-05
-0.00296571
1.14617e-05
-0.00284257
-4.50538e-06
-0.00272674
-1.6507e-05
-0.00262415
-2.44503e-05
-0.00253344
-2.92063e-05
-0.00244371
-3.03483e-05
-0.00239243
-3.22886e-05
-0.00229043
-2.81207e-05
-0.00238388
-0.00160853
0.0998068
-0.451273
0.0941011
-0.42519
0.0887049
-0.40068
0.083619
-0.377645
0.0788439
-0.356086
0.0743451
-0.33573
0.0700883
-0.316646
0.0661081
-0.298629
0.0623009
-0.28168
0.0587704
-0.265729
0.0554129
-0.250674
0.0522631
-0.236481
0.0492517
-0.223081
0.046448
-0.210474
0.043793
-0.198602
0.0412904
-0.187365
0.0389296
-0.176776
0.0367004
-0.166787
0.0345958
-0.157365
0.0326123
-0.148474
0.0307395
-0.140087
0.0289741
-0.132177
0.027309
-0.124712
0.0257408
-0.117672
0.0242592
-0.111026
0.0228572
-0.104756
0.0215382
-0.0988452
0.0202953
-0.0932663
0.0191217
-0.0880017
0.0180104
-0.0830344
0.0169683
-0.078354
0.0159815
-0.0739327
0.0150501
-0.0697639
0.014174
-0.0658302
0.0133463
-0.0621212
0.0125636
-0.0586198
0.0118293
-0.055319
0.0111294
-0.0522015
0.010478
-0.0492675
0.00985754
-0.0464926
0.00927159
-0.0438769
0.00872014
-0.0414135
0.00819969
-0.0390851
0.00770674
-0.0368916
0.0072413
-0.0348193
0.00680687
-0.0328681
0.00639297
-0.0310275
0.00600316
-0.0292874
0.00563387
-0.0276474
0.00528517
-0.0261043
0.00495715
-0.0246441
0.00464618
-0.0232667
0.00435409
-0.0219705
0.0040771
-0.020745
0.00381561
-0.0195896
0.00356892
-0.0184993
0.00333561
-0.0174706
0.00311539
-0.0165001
0.0029072
-0.0155841
0.00271064
-0.01472
0.00252536
-0.0139048
0.00234996
-0.0131349
0.00218464
-0.0124088
0.00202833
-0.0117233
0.00188078
-0.0110771
0.00174177
-0.0104667
0.00161078
-0.00989107
0.00148688
-0.0093475
0.00137023
-0.00883547
0.00125977
-0.00835198
0.00115628
-0.00789615
0.00105844
-0.00746643
0.000966335
-0.00706112
0.00087955
-0.00667934
0.000797622
-0.00631968
0.000720871
-0.00598051
0.000648569
-0.00566194
0.000580666
-0.00536206
0.000516426
-0.00507925
0.000456903
-0.00481468
0.000401065
-0.00456574
0.000348933
-0.00433208
0.000300023
-0.00411299
0.000254102
-0.00390788
0.00021242
-0.00371713
0.000173823
-0.00353755
0.00013856
-0.00337129
0.000106736
-0.003216
7.79093e-05
-0.00307336
5.27652e-05
-0.00294056
3.06897e-05
-0.00282049
1.21663e-05
-0.00270821
-2.27593e-06
-0.00260971
-1.32176e-05
-0.0025225
-2.07967e-05
-0.00243613
-2.36242e-05
-0.0023896
-2.67708e-05
-0.00228728
-2.5436e-05
-0.00238521