/*--------------------------------*- C++ -*----------------------------------*\
  =========                 |
  \\      /  F ield         | OpenFOAM: The Open Source CFD Toolbox
   \\    /   O peration     | Website:  https://openfoam.org
    \\  /    A nd           | Version:  9
     \\/     M anipulation  |
\*---------------------------------------------------------------------------*/
FoamFile
{
    format      ascii;
    class       volScalarField;
    location    "2250";
    object      ReThetat;
}
// * * * * * * * * * * * * * * * * * * * * * * * * * * * * * * * * * * * * * //

dimensions      [0 0 0 0 0 0 0];

internalField   nonuniform List<scalar> 
13538
(
1050
1331.66
1473.82
1481.29
1224.5
1186.24
1177.82
1175.81
1174.11
1172.26
1170.28
1168.62
1167.13
1165.93
1164.92
1164.19
1163.69
1163.48
1163.54
1163.9
1164.57
1165.55
1166.87
1168.52
1170.52
1172.88
1175.6
1178.7
1182.18
1186.04
1190.27
1194.89
1199.85
1205.13
1210.65
1216.3
1221.92
1227.31
1232.2
1236.32
1239.39
1241.2
1241.61
1240.58
1238.1
1232.82
1226.68
1220.45
1214.15
1207.8
1201.39
1194.93
1188.41
1181.84
1175.22
1168.55
1161.83
1155.07
1148.25
1141.36
1134.4
1127.33
1120.14
1112.77
1105.19
1097.34
1089.15
1080.56
1071.48
1061.84
1051.59
1040.69
1029.14
1016.97
1004.21
990.888
977.061
962.951
948.831
934.86
921.06
907.39
893.836
880.456
867.392
854.823
842.77
831.012
819.569
808.252
796.72
780.369
763.201
718.632
673.089
622.242
591.065
565.185
557.09
1030.03
1203.42
1472.16
1477.06
1236.25
1187.63
1176.85
1174.26
1172.71
1170.98
1169.08
1167.42
1165.95
1164.74
1163.74
1163.01
1162.53
1162.32
1162.39
1162.76
1163.45
1164.48
1165.85
1167.58
1169.68
1172.17
1175.07
1178.37
1182.09
1186.22
1190.76
1195.7
1200.99
1206.58
1212.37
1218.23
1223.98
1229.39
1234.21
1238.17
1241.02
1242.57
1242.73
1241.5
1238.84
1233.39
1227.31
1221.15
1214.92
1208.64
1202.29
1195.89
1189.43
1182.93
1176.37
1169.76
1163.11
1156.4
1149.64
1142.8
1135.88
1128.85
1121.68
1114.32
1106.74
1098.86
1090.63
1081.97
1072.81
1063.07
1052.69
1041.65
1029.95
1017.62
1004.7
991.203
977.21
962.93
948.653
934.554
920.642
906.882
893.251
879.786
866.637
853.992
841.915
830.163
818.741
807.406
796.292
786.736
771.918
727.962
680.511
626.449
593.152
566.257
557.276
1014.96
1172.28
1471.71
1478.28
1264.09
1194.34
1178.81
1175.18
1173.75
1172.19
1170.42
1168.77
1167.35
1166.19
1165.27
1164.61
1164.2
1164.08
1164.25
1164.72
1165.53
1166.66
1168.14
1169.99
1172.22
1174.83
1177.84
1181.26
1185.08
1189.31
1193.93
1198.93
1204.26
1209.85
1215.61
1221.38
1227
1232.23
1236.83
1240.53
1243.13
1244.44
1244.39
1243
1240.16
1234.64
1228.61
1222.48
1216.29
1210.03
1203.72
1197.35
1190.92
1184.44
1177.92
1171.34
1164.71
1158.03
1151.28
1144.46
1137.55
1130.51
1123.33
1115.94
1108.31
1100.36
1092.03
1083.27
1073.96
1064.05
1053.47
1042.22
1030.29
1017.74
1004.59
990.858
976.624
962.121
947.655
933.393
919.353
905.476
891.745
878.185
864.954
852.25
840.158
828.412
817.042
805.798
794.47
783.218
770.338
733.954
686.839
628.701
594.661
566.85
557.399
1002.4
1187.3
1471.17
1478.42
1297.26
1202.14
1180.43
1175.3
1173.75
1172.36
1170.66
1169
1167.56
1166.37
1165.43
1164.73
1164.3
1164.14
1164.27
1164.71
1165.47
1166.57
1168.02
1169.84
1172.05
1174.66
1177.69
1181.14
1185.03
1189.35
1194.1
1199.24
1204.73
1210.5
1216.43
1222.36
1228.11
1233.43
1238.06
1241.77
1244.32
1245.58
1245.48
1244.05
1241.08
1235.66
1229.71
1223.63
1217.49
1211.28
1205
1198.68
1192.29
1185.86
1179.37
1172.83
1166.24
1159.59
1152.87
1146.07
1139.17
1132.14
1124.94
1117.52
1109.83
1101.81
1093.39
1084.49
1075.03
1064.93
1054.15
1042.67
1030.51
1017.72
1004.34
990.37
975.896
961.176
946.526
932.116
917.951
903.971
890.15
876.511
863.203
850.446
838.345
826.615
815.285
804.106
792.897
781.783
770.067
740.119
693.366
631.11
596.249
567.466
557.522
991.473
1188.78
1471.48
1478.3
1345.93
1213.2
1182.97
1175.86
1173.97
1172.72
1171.15
1169.51
1168.06
1166.86
1165.91
1165.22
1164.78
1164.63
1164.76
1165.2
1165.97
1167.08
1168.54
1170.38
1172.62
1175.26
1178.34
1181.85
1185.81
1190.21
1195.04
1200.27
1205.85
1211.7
1217.7
1223.68
1229.44
1234.75
1239.35
1242.99
1245.48
1246.68
1246.53
1245.09
1242.06
1236.79
1230.91
1224.9
1218.8
1212.63
1206.4
1200.11
1193.76
1187.37
1180.92
1174.41
1167.85
1161.23
1154.53
1147.75
1140.85
1133.8
1126.58
1119.11
1111.35
1103.23
1094.68
1085.63
1075.99
1065.68
1054.67
1042.94
1030.52
1017.47
1003.83
989.602
974.872
959.925
945.09
930.53
916.244
902.166
888.265
874.554
861.176
848.376
836.282
824.573
813.286
802.185
791.041
779.74
768.722
745.644
699.413
633.281
597.644
568.016
557.631
981.532
1232.06
1472.88
1477.61
1414.09
1227.73
1186.3
1176.63
1174.13
1172.95
1171.53
1169.92
1168.45
1167.22
1166.25
1165.54
1165.08
1164.9
1165.01
1165.43
1166.17
1167.26
1168.7
1170.53
1172.75
1175.4
1178.47
1182.01
1185.99
1190.44
1195.32
1200.63
1206.29
1212.22
1218.3
1224.35
1230.17
1235.51
1240.14
1243.8
1246.3
1247.51
1247.39
1245.98
1243.03
1237.9
1232.13
1226.18
1220.13
1214.01
1207.82
1201.57
1195.27
1188.91
1182.49
1176.02
1169.49
1162.89
1156.21
1149.43
1142.53
1135.47
1128.2
1120.68
1112.83
1104.59
1095.9
1086.67
1076.83
1066.28
1055
1042.99
1030.3
1016.98
1003.07
988.56
973.566
958.385
943.367
928.668
914.267
900.099
886.123
872.352
858.922
846.092
834.001
822.332
811.093
800.071
789.043
777.703
766.973
750.398
705.081
635.375
598.851
568.519
557.733
972.886
1437
1475.44
1477.2
1483.46
1245.49
1190.89
1177.82
1174.36
1173.15
1171.88
1170.33
1168.84
1167.59
1166.6
1165.86
1165.38
1165.18
1165.26
1165.65
1166.37
1167.43
1168.85
1170.65
1172.86
1175.49
1178.56
1182.1
1186.1
1190.56
1195.48
1200.83
1206.54
1212.52
1218.65
1224.75
1230.62
1236
1240.66
1244.36
1246.9
1248.16
1248.1
1246.77
1243.97
1239.03
1233.37
1227.49
1221.5
1215.43
1209.29
1203.08
1196.81
1190.49
1184.11
1177.67
1171.17
1164.59
1157.92
1151.14
1144.22
1137.13
1129.81
1122.21
1114.25
1105.88
1097.01
1087.59
1077.51
1066.69
1055.12
1042.81
1029.82
1016.2
1002.01
987.213
971.94
956.526
941.334
926.502
911.994
897.745
883.71
869.887
856.419
843.572
831.506
819.883
808.695
797.765
786.841
775.531
764.817
752.656
709.774
637.673
599.976
568.967
557.822
965.92
1320.22
1471.5
1477.93
1479.66
1265.6
1197.4
1179.52
1174.7
1173.31
1172.18
1170.72
1169.22
1167.93
1166.91
1166.14
1165.63
1165.39
1165.43
1165.79
1166.46
1167.48
1168.86
1170.63
1172.8
1175.4
1178.44
1181.96
1185.95
1190.41
1195.34
1200.7
1206.43
1212.45
1218.62
1224.77
1230.69
1236.13
1240.85
1244.62
1247.24
1248.6
1248.66
1247.45
1244.88
1240.14
1234.62
1228.83
1222.91
1216.89
1210.79
1204.63
1198.4
1192.11
1185.77
1179.36
1172.87
1166.31
1159.65
1152.86
1145.92
1138.78
1131.39
1123.69
1115.6
1107.06
1098
1088.35
1078
1066.89
1055
1042.36
1029.04
1015.12
1000.62
985.522
969.966
954.325
938.966
924.018
909.415
895.096
881.014
867.157
853.661
840.818
828.785
817.228
806.108
795.264
784.461
773.227
762.435
750.588
712.151
640.812
600.936
569.36
557.907
959.292
1255.39
1468.53
1478.19
1479.71
1292.72
1205.88
1181.79
1175.21
1173.46
1172.42
1171.07
1169.59
1168.26
1167.19
1166.39
1165.84
1165.56
1165.56
1165.86
1166.49
1167.46
1168.79
1170.5
1172.62
1175.18
1178.18
1181.65
1185.61
1190.04
1194.95
1200.3
1206.04
1212.07
1218.26
1224.45
1230.41
1235.92
1240.73
1244.6
1247.34
1248.84
1249.05
1248
1245.7
1241.22
1235.88
1230.19
1224.34
1218.37
1212.32
1206.21
1200.02
1193.77
1187.45
1181.07
1174.6
1168.05
1161.38
1154.58
1147.59
1140.39
1132.91
1125.09
1116.85
1108.12
1098.83
1088.91
1078.26
1066.82
1054.58
1041.59
1027.93
1013.69
998.869
983.454
967.609
951.747
936.242
921.187
906.507
892.135
878.022
864.149
850.645
837.823
825.839
814.358
803.312
792.579
781.894
770.756
759.973
748.922
711.562
643.554
601.786
569.718
557.976
953.265
1191.73
1465.06
1478.39
1479.31
1331.04
1217.16
1184.74
1175.97
1173.63
1172.62
1171.39
1169.94
1168.58
1167.46
1166.6
1166.01
1165.68
1165.63
1165.88
1166.44
1167.35
1168.62
1170.27
1172.32
1174.81
1177.75
1181.16
1185.06
1189.44
1194.31
1199.62
1205.34
1211.36
1217.56
1223.77
1229.79
1235.37
1240.28
1244.28
1247.18
1248.86
1249.26
1248.41
1246.41
1242.24
1237.11
1231.55
1225.78
1219.88
1213.89
1207.81
1201.67
1195.45
1189.16
1182.8
1176.35
1169.8
1163.12
1156.28
1149.24
1141.96
1134.37
1126.4
1117.97
1109.01
1099.46
1089.24
1078.26
1066.45
1053.83
1040.46
1026.45
1011.86
996.71
980.964
964.829
948.761
933.13
917.99
903.249
888.841
874.721
860.849
847.365
834.579
822.666
811.278
800.321
789.704
779.138
768.125
757.376
746.922
710.689
646.181
602.484
570.032
558.042
947.301
1160.43
1463.99
1478.34
1478.53
1386.33
1232.14
1188.51
1177.03
1173.86
1172.78
1171.67
1170.27
1168.88
1167.7
1166.79
1166.14
1165.76
1165.65
1165.83
1166.33
1167.17
1168.36
1169.93
1171.9
1174.31
1177.16
1180.49
1184.31
1188.62
1193.41
1198.67
1204.34
1210.33
1216.52
1222.75
1228.81
1234.47
1239.49
1243.65
1246.73
1248.62
1249.26
1248.65
1246.93
1243.18
1238.31
1232.9
1227.22
1221.4
1215.46
1209.44
1203.33
1197.15
1190.89
1184.54
1178.1
1171.54
1164.83
1157.94
1150.83
1143.44
1135.71
1127.56
1118.91
1109.7
1099.85
1089.3
1077.93
1065.72
1052.68
1038.92
1024.53
1009.59
994.09
978.003
961.587
945.331
929.601
914.399
899.616
885.194
871.089
857.252
843.797
831.084
819.26
807.978
797.127
786.638
776.203
765.323
754.654
744.733
709.421
648.406
603.103
570.301
558.101
941.741
1151.98
1464.27
1478.32
1477.54
1452.87
1250.75
1193.49
1178.54
1174.21
1172.91
1171.9
1170.57
1169.16
1167.93
1166.96
1166.25
1165.8
1165.63
1165.74
1166.16
1166.91
1168.01
1169.49
1171.37
1173.67
1176.42
1179.65
1183.36
1187.57
1192.28
1197.45
1203.04
1208.98
1215.14
1221.36
1227.46
1233.21
1238.35
1242.68
1245.98
1248.12
1249.02
1248.68
1247.21
1244
1239.44
1234.2
1228.65
1222.91
1217.04
1211.06
1205
1198.85
1192.61
1186.27
1179.83
1173.25
1166.5
1159.55
1152.34
1144.82
1136.92
1128.56
1119.65
1110.13
1099.94
1089.01
1077.22
1064.56
1051.08
1036.9
1022.12
1006.82
990.954
974.523
957.831
941.425
925.623
910.382
895.578
881.171
867.11
853.329
839.948
827.324
815.615
804.459
793.725
783.381
773.078
762.347
751.806
742.326
708.027
649.643
603.613
570.528
558.149
936.855
1209.09
1463.15
1478.11
1477.08
1482.85
1271.41
1200.48
1180.67
1174.74
1173.04
1172.09
1170.85
1169.44
1168.15
1167.11
1166.33
1165.81
1165.56
1165.59
1165.92
1166.58
1167.59
1168.96
1170.72
1172.91
1175.54
1178.64
1182.23
1186.32
1190.9
1195.96
1201.45
1207.31
1213.41
1219.62
1225.75
1231.56
1236.84
1241.35
1244.88
1247.3
1248.5
1248.48
1247.3
1244.66
1240.45
1235.44
1230.03
1224.39
1218.59
1212.68
1206.66
1200.54
1194.32
1187.98
1181.53
1174.91
1168.11
1161.06
1153.73
1146.05
1137.94
1129.32
1120.1
1110.24
1099.67
1088.3
1076.05
1062.91
1048.96
1034.34
1019.16
1003.48
987.242
970.457
953.516
936.996
921.163
905.91
891.113
876.751
862.766
849.074
835.788
823.292
811.724
800.71
790.116
779.929
769.768
759.196
748.83
739.701
706.885
650.413
604.003
570.725
558.194
932.434
1155.36
1453.74
1477.35
1476.99
1480.58
1296.4
1210.02
1183.54
1175.51
1173.21
1172.25
1171.1
1169.71
1168.36
1167.25
1166.39
1165.79
1165.46
1165.4
1165.63
1166.19
1167.08
1168.34
1169.98
1172.03
1174.52
1177.48
1180.92
1184.86
1189.29
1194.21
1199.57
1205.32
1211.35
1217.52
1223.65
1229.53
1234.93
1239.63
1243.41
1246.12
1247.65
1247.98
1247.14
1245.08
1241.29
1236.57
1231.34
1225.82
1220.11
1214.26
1208.28
1202.19
1195.98
1189.64
1183.16
1176.49
1169.61
1162.45
1154.96
1147.07
1138.71
1129.79
1120.22
1109.95
1098.95
1087.11
1074.34
1060.67
1046.23
1031.15
1015.57
999.51
982.876
965.746
948.594
932.005
916.186
900.952
886.188
871.906
858.038
844.472
831.315
818.977
807.579
796.726
786.29
776.275
766.269
755.87
745.722
736.886
705.916
650.92
604.293
570.892
558.229
928.064
1138.76
1430.29
1475.9
1476.88
1479.8
1331.26
1222.67
1187.26
1176.59
1173.46
1172.37
1171.32
1169.96
1168.57
1167.38
1166.44
1165.75
1165.33
1165.17
1165.3
1165.74
1166.51
1167.64
1169.14
1171.04
1173.38
1176.17
1179.44
1183.2
1187.46
1192.21
1197.41
1203.02
1208.94
1215.04
1221.15
1227.08
1232.6
1237.48
1241.52
1244.54
1246.43
1247.13
1246.67
1245.14
1241.89
1237.53
1232.53
1227.16
1221.55
1215.77
1209.84
1203.77
1197.57
1191.22
1184.69
1177.95
1170.95
1163.64
1155.96
1147.83
1139.16
1129.88
1119.9
1109.18
1097.69
1085.31
1071.98
1057.76
1042.8
1027.27
1011.28
994.816
977.779
960.313
942.999
926.415
910.647
895.464
880.778
866.615
852.906
839.5
826.518
814.369
803.173
792.503
782.242
772.422
762.582
752.361
742.45
733.907
704.901
651.221
604.505
571.016
558.258
923.304
1142.37
1387.82
1474.18
1476.29
1478.51
1380.96
1239.49
1191.98
1178.05
1173.83
1172.49
1171.5
1170.21
1168.78
1167.51
1166.47
1165.7
1165.17
1164.91
1164.93
1165.24
1165.88
1166.86
1168.21
1169.95
1172.11
1174.71
1177.78
1181.35
1185.41
1189.95
1194.97
1200.4
1206.18
1212.17
1218.24
1224.19
1229.8
1234.86
1239.15
1242.5
1244.76
1245.87
1245.83
1244.69
1242.16
1238.25
1233.53
1228.35
1222.87
1217.17
1211.29
1205.25
1199.05
1192.66
1186.07
1179.23
1172.09
1164.59
1156.66
1148.23
1139.2
1129.49
1119.04
1107.81
1095.77
1082.8
1068.86
1054.05
1038.56
1022.58
1006.17
989.297
971.854
954.087
936.685
920.174
904.511
889.413
874.843
860.856
847.351
834.154
821.375
809.466
798.496
788.03
777.969
768.355
758.697
748.674
739.015
730.767
703.796
651.358
604.637
571.105
558.285
918.384
1162.07
1462.69
1476.37
1475.46
1477.03
1444.28
1260.51
1198.04
1180.06
1174.39
1172.63
1171.66
1170.43
1169
1167.64
1166.51
1165.63
1165
1164.63
1164.52
1164.7
1165.19
1166.02
1167.2
1168.75
1170.72
1173.12
1175.98
1179.32
1183.14
1187.46
1192.25
1197.47
1203.06
1208.92
1214.9
1220.83
1226.51
1231.72
1236.26
1239.92
1242.57
1244.11
1244.51
1243.81
1241.98
1238.61
1234.27
1229.32
1224
1218.4
1212.58
1206.56
1200.34
1193.91
1187.23
1180.26
1172.93
1165.18
1156.96
1148.16
1138.7
1128.5
1117.51
1105.71
1093.06
1079.44
1064.84
1049.41
1033.4
1016.96
1000.15
982.848
964.998
946.985
929.591
913.239
897.724
882.752
868.349
854.596
841.355
828.404
815.887
804.251
793.542
783.302
773.459
764.079
754.61
744.801
735.417
727.453
702.526
651.277
604.68
571.188
558.3
915.595
1225.95
1455.23
1476
1475.4
1475.96
1483.24
1283.52
1206.32
1182.84
1175.2
1172.81
1171.78
1170.64
1169.21
1167.78
1166.54
1165.55
1164.81
1164.32
1164.08
1164.12
1164.45
1165.11
1166.11
1167.47
1169.23
1171.4
1174.02
1177.1
1180.67
1184.72
1189.25
1194.23
1199.59
1205.26
1211.11
1216.98
1222.69
1228.02
1232.78
1236.75
1239.78
1241.76
1242.64
1242.4
1241.17
1238.49
1234.62
1229.98
1224.85
1219.38
1213.63
1207.63
1201.38
1194.88
1188.08
1180.93
1173.36
1165.31
1156.72
1147.49
1137.52
1126.75
1115.14
1102.71
1089.38
1075.04
1059.74
1043.7
1027.18
1010.3
993.067
975.328
957.091
938.928
921.665
905.558
890.236
875.436
861.264
847.816
834.891
822.242
810.031
798.72
788.305
778.308
768.709
759.579
750.317
740.739
731.653
723.997
700.934
651.031
604.652
571.212
558.315
912.141
1143.75
1448.09
1475.4
1475.09
1475.48
1480.1
1309.98
1217.77
1186.57
1176.33
1173.09
1171.9
1170.82
1169.41
1167.92
1166.57
1165.47
1164.61
1163.99
1163.61
1163.5
1163.67
1164.15
1164.95
1166.1
1167.63
1169.56
1171.92
1174.72
1178
1181.76
1185.99
1190.67
1195.77
1201.2
1206.86
1212.62
1218.3
1223.71
1228.64
1232.89
1236.29
1238.71
1240.07
1240.35
1239.56
1237.69
1234.42
1230.18
1225.31
1219.99
1214.32
1208.34
1202.05
1195.45
1188.49
1181.1
1173.24
1164.82
1155.78
1146.03
1135.46
1124.03
1111.74
1098.6
1084.52
1069.42
1053.39
1036.75
1019.73
1002.43
984.769
966.589
948.018
929.833
912.847
897.067
881.987
867.411
853.553
840.481
827.94
815.644
803.797
792.861
782.77
773.037
763.712
754.856
745.811
736.483
727.726
720.37
699.191
650.511
604.536
571.238
558.319
907.513
1175.01
1461.38
1475.63
1473.97
1474.81
1478.8
1347.8
1233.1
1191.34
1177.86
1173.5
1172.03
1170.97
1169.61
1168.07
1166.62
1165.39
1164.4
1163.64
1163.12
1162.85
1162.85
1163.13
1163.73
1164.66
1165.94
1167.61
1169.68
1172.19
1175.15
1178.57
1182.47
1186.82
1191.59
1196.72
1202.14
1207.72
1213.3
1218.72
1223.77
1228.25
1231.99
1234.84
1236.69
1237.48
1237.22
1235.99
1233.45
1229.73
1225.2
1220.09
1214.51
1208.54
1202.19
1195.45
1188.28
1180.61
1172.37
1163.5
1153.92
1143.54
1132.28
1120.1
1107.05
1093.13
1078.24
1062.31
1045.56
1028.34
1010.87
993.152
975.067
956.45
937.645
919.631
903.084
887.7
872.9
858.628
845.178
832.57
820.472
808.597
797.166
786.661
776.925
767.479
758.457
749.9
741.096
732.031
723.629
716.593
697.195
649.883
604.343
571.226
558.325
904.479
1374.62
1466.35
1475.33
1473.68
1474.23
1476.94
1402.18
1253.57
1197.41
1179.89
1174.11
1172.18
1171.1
1169.79
1168.22
1166.68
1165.32
1164.19
1163.29
1162.62
1162.18
1161.99
1162.07
1162.45
1163.14
1164.17
1165.55
1167.32
1169.5
1172.12
1175.18
1178.7
1182.66
1187.06
1191.84
1196.94
1202.26
1207.67
1213.01
1218.1
1222.74
1226.76
1229.99
1232.3
1233.62
1233.9
1233.16
1231.42
1228.36
1224.28
1219.43
1213.98
1208.02
1201.59
1194.67
1187.23
1179.18
1170.48
1161.06
1150.84
1139.73
1127.67
1114.65
1100.75
1085.99
1070.22
1053.44
1036
1018.26
1000.36
982.247
963.73
944.726
925.855
908.254
892.302
877.373
862.899
849.034
836.103
824.053
812.469
801.068
790.131
780.101
770.752
761.618
752.939
744.708
736.155
727.383
719.361
712.65
695.019
649.048
604.103
571.19
558.324
1242.39
1457.99
1475.32
1473.25
1473.62
1474.98
1466.7
1278.32
1205.37
1182.7
1175.02
1172.4
1171.21
1169.95
1168.38
1166.75
1165.26
1163.99
1162.94
1162.1
1161.49
1161.11
1160.98
1161.13
1161.57
1162.32
1163.41
1164.86
1166.69
1168.93
1171.59
1174.69
1178.23
1182.19
1186.55
1191.26
1196.24
1201.37
1206.54
1211.56
1216.26
1220.47
1224.01
1226.74
1228.54
1229.36
1229.16
1227.96
1225.69
1222.19
1217.69
1212.41
1206.47
1199.92
1192.78
1184.99
1176.49
1167.22
1157.13
1146.14
1134.18
1121.21
1107.26
1092.46
1076.78
1060.08
1042.47
1024.41
1006.21
987.942
969.434
950.499
931.214
912.545
895.638
880.417
865.97
851.898
838.574
826.292
814.889
803.897
793.045
782.671
773.175
764.226
755.439
747.147
739.271
730.984
722.537
714.922
708.547
692.58
648.097
603.78
571.135
558.319
1453.51
1475.12
1472.8
1472.99
1473.98
1480.29
1303.77
1216.7
1186.71
1176.32
1172.74
1171.33
1170.1
1168.55
1166.84
1165.21
1163.79
1162.59
1161.59
1160.79
1160.21
1159.87
1159.78
1159.95
1160.41
1161.19
1162.3
1163.76
1165.6
1167.83
1170.47
1173.53
1177
1180.88
1185.11
1189.64
1194.4
1199.26
1204.09
1208.72
1212.99
1216.73
1219.78
1222
1223.3
1223.61
1222.91
1221.24
1218.42
1214.38
1209.33
1203.43
1196.75
1189.32
1181.1
1172.04
1162.09
1151.21
1139.32
1126.38
1112.38
1097.43
1081.67
1065.02
1047.36
1029
1010.42
991.874
973.256
954.375
935.086
915.733
897.636
881.717
867.3
853.353
839.809
827.2
815.71
805.047
794.719
784.495
774.763
765.854
757.337
748.931
741.083
733.588
725.577
717.483
710.315
704.285
689.994
646.987
603.382
571.047
558.312
1472.37
1473.29
1477.81
1337.88
1232.42
1192.05
1178.11
1173.26
1171.47
1170.23
1168.7
1166.94
1165.2
1163.62
1162.25
1161.08
1160.1
1159.31
1158.75
1158.4
1158.31
1158.47
1158.92
1159.67
1160.74
1162.16
1163.91
1166.05
1168.58
1171.51
1174.82
1178.49
1182.49
1186.74
1191.16
1195.64
1200.04
1204.2
1207.98
1211.19
1213.7
1215.37
1216.12
1215.88
1214.6
1212.33
1208.83
1204.09
1198.26
1191.42
1183.64
1174.89
1165.16
1154.41
1142.58
1129.65
1115.61
1100.5
1084.49
1067.74
1050.1
1031.55
1012.56
993.625
974.795
955.877
936.683
917.193
898.134
881.076
866.384
852.779
839.382
826.559
814.873
804.316
794.485
784.903
775.395
766.392
758.115
750.046
742.08
734.737
727.651
719.936
712.225
705.535
699.86
687.264
645.719
602.899
570.945
558.302
1472.58
1475.67
1388.48
1253.95
1198.98
1180.52
1174.04
1171.67
1170.35
1168.87
1167.08
1165.22
1163.49
1161.95
1160.6
1159.43
1158.43
1157.63
1157.04
1156.66
1156.52
1156.62
1157
1157.66
1158.63
1159.86
1161.47
1163.42
1165.73
1168.41
1171.43
1174.78
1178.41
1182.24
1186.19
1190.16
1194.01
1197.59
1200.75
1203.34
1205.19
1206.21
1206.27
1205.31
1203.25
1200.12
1195.71
1189.99
1182.97
1174.78
1165.42
1154.91
1143.2
1130.29
1116.2
1100.96
1084.67
1067.58
1049.86
1031.27
1011.98
992.603
973.469
954.436
935.297
915.932
896.541
878.31
862.803
849.461
836.619
823.917
812.102
801.566
792.068
783.165
774.411
765.716
757.535
749.931
742.339
734.878
728.111
721.449
714.039
706.763
700.584
695.269
684.319
644.294
602.348
570.807
558.29
1473.27
1452.75
1281.07
1208.1
1183.85
1175.21
1171.99
1170.49
1169.05
1167.25
1165.3
1163.41
1161.7
1160.16
1158.79
1157.59
1156.55
1155.69
1155.03
1154.56
1154.31
1154.3
1154.53
1155.03
1155.72
1156.77
1158.07
1159.71
1161.68
1163.97
1166.57
1169.43
1172.51
1175.74
1179.05
1182.33
1185.44
1188.25
1190.6
1192.34
1193.33
1193.43
1192.53
1190.53
1187.33
1182.92
1177.25
1170.01
1161.38
1151.31
1139.9
1127.12
1113.01
1097.66
1081.17
1063.71
1045.61
1027
1007.64
987.909
968.418
949.242
930.124
910.944
891.693
872.914
856.209
842.69
830.653
818.569
806.872
796.424
787.249
778.916
771.03
763.205
755.438
748.174
741.266
734.179
727.321
721.202
714.97
707.892
701.098
695.467
690.512
681.166
642.683
601.711
570.645
558.272
1151.54
1151.96
1152.58
1153.48
1154.68
1156.15
1157.88
1159.84
1162
1164.32
1166.73
1169.14
1171.44
1173.5
1175.2
1176.38
1176.9
1176.6
1175.33
1172.96
1169.39
1164.52
1158.26
1150.64
1141.46
1130.6
1118.21
1104.25
1088.88
1072.27
1054.59
1036.06
1017.13
997.914
978.151
958.399
939.086
920.047
901.091
882.216
863.568
846.147
831.764
820.451
809.543
798.406
788.218
779.51
771.859
764.787
758.017
751.242
744.55
738.288
732.08
725.548
719.416
714.013
708.206
701.482
695.24
690.186
685.588
677.707
640.905
601.013
570.458
558.253
1147
1147.1
1147.48
1148.03
1148.78
1149.71
1150.8
1151.99
1153.24
1154.45
1155.53
1156.39
1156.91
1156.94
1156.35
1154.99
1152.69
1149.32
1144.75
1138.85
1131.55
1122.77
1112.48
1100.61
1087.15
1071.97
1055.41
1037.68
1019.01
999.695
980.319
961.082
941.504
922.225
903.408
884.835
866.528
848.511
831.197
816.07
1140.6
1140.11
1139.67
1139.34
1139.13
1138.97
1138.82
1138.61
1138.27
1137.71
1136.83
1135.55
1133.73
1131.24
1127.96
1123.73
1118.44
1111.94
1104.15
1094.97
1084.37
1072.24
1058.54
1043.45
1027.04
1009.45
990.908
971.675
952.043
932.997
914.729
896.018
877.729
859.901
842.46
825.596
809.2
794.105
1131.13
1129.61
1128.13
1126.51
1124.78
1122.8
1120.51
1117.83
1114.68
1110.95
1106.52
1101.29
1095.14
1087.97
1079.68
1070.16
1059.36
1047.21
1033.7
1018.78
1002.54
985.36
967.202
948.302
929.086
909.814
890.487
873.003
856.502
839.154
822.653
806.824
791.678
777.342
763.508
1119.44
1116.52
1113.22
1109.63
1105.45
1100.79
1095.53
1089.58
1082.8
1075.12
1066.43
1056.66
1045.74
1033.62
1020.18
1005.4
989.269
971.861
953.313
933.855
914.314
894.157
873.832
853.782
834.254
815.268
799.924
1098.35
1092.42
1085.62
1078.19
1069.95
1060.82
1050.58
1039.3
1026.88
1013.31
998.548
982.62
965.2
946.467
926.577
905.792
884.384
862.575
841.706
819.981
798.485
777.647
757.64
738.666
1062.26
1051.86
1040.56
1028.3
1014.8
1000.32
984.711
968.095
950.508
932.031
912.77
892.853
872.449
851.742
830.884
809.976
984.355
968.429
951.557
933.988
915.726
896.855
877.469
857.683
837.628
817.433
797.225
777.133
925.218
906.983
888.26
869.133
849.681
830.005
810.227
790.47
770.867
751.534
628.266
634.656
643.104
612.638
624.233
632.241
639.091
647.215
656.776
664.629
661.071
673.754
698.648
709.921
700.857
691.853
687.482
681.601
672.98
663.623
655.503
651.67
580.264
582.791
585.601
588.867
593.231
602.231
616.013
628.294
636.374
643.569
651.818
660.84
668.385
667.671
680.619
702.269
710.486
699.437
691.623
687.41
680.448
671.102
661.599
653.739
650.482
574.927
576.285
577.99
580.044
582.414
585.092
588.048
591.427
595.881
605.352
619.362
632.245
640.778
648.371
656.851
665.66
671.313
671.886
688.805
706.922
711.842
699.173
692.449
687.076
678.715
668.581
658.858
651.132
648.307
573.836
574.102
574.653
575.493
576.651
578.12
579.957
582.167
584.709
587.542
590.602
593.986
598.317
608.127
623.051
636.607
645.518
653.506
662.097
670.53
674.671
676.972
695.169
710.528
712.275
698.372
692.645
685.996
676.348
665.623
655.871
648.52
646.5
576.048
575.5
575.26
575.372
575.691
576.302
577.22
578.461
580.064
582.062
584.453
587.201
590.228
593.44
596.877
601.134
611.366
627.13
641.337
650.622
659.018
667.679
675.429
678.146
682.956
701.412
714.014
712.293
698.238
692.557
684.15
673.261
662.073
652.438
645.639
644.824
579.547
578.305
577.594
577.066
576.847
576.911
577.299
577.996
579.017
580.391
582.144
584.322
586.921
589.893
593.146
596.541
600.054
604.249
614.968
631.665
646.517
656.149
664.945
673.577
680.385
682.116
689.689
707.543
716.967
711.681
699.942
692.064
681.421
669.346
657.862
648.565
642.591
643.547
584.965
582.68
581.191
579.943
579.061
578.571
578.404
578.553
579.016
579.804
580.934
582.442
584.361
586.74
589.577
592.812
596.331
599.954
603.584
607.754
619.054
636.74
652.215
662.171
671.343
679.81
685.442
687
697.322
713.502
719.232
710.523
701.16
690.205
677.481
664.456
652.915
644.229
639.458
642.376
607.465
599.286
593.679
589.573
586.79
584.458
582.683
581.449
580.641
580.191
580.074
580.283
580.828
581.714
582.966
584.624
586.728
589.335
592.442
595.98
599.813
603.717
607.517
611.723
623.715
642.452
658.51
668.756
678.27
686.398
690.682
693.054
705.619
719.009
720.663
709.114
699.011
686.489
672.216
658.499
647.177
639.426
636.279
641.245
676.894
655.656
637.109
621.664
610.1
601.641
595.835
591.592
588.363
586.014
584.307
583.089
582.3
581.892
581.832
582.113
582.745
583.74
585.125
586.948
589.259
592.122
595.534
599.42
603.622
607.873
611.913
616.243
629.064
648.922
665.494
675.984
685.773
693.365
696.289
699.793
713.805
723.687
721.116
708.687
696.725
681.482
665.491
651.343
640.587
634.158
632.957
640.101
754.087
727.807
702.684
680.432
659.064
640.324
624.661
612.062
603.452
597.568
593.274
590.098
587.729
586.006
584.805
584.051
583.692
583.693
584.048
584.775
585.888
587.419
589.425
591.965
595.115
598.874
603.161
607.795
612.471
616.841
621.418
635.229
656.254
673.274
683.946
693.921
700.733
702.563
707.403
720.651
727.357
720.624
708.808
692.736
674.458
657.08
642.906
633.115
628.478
629.361
638.91
810.148
783.445
758.031
731.714
706.495
682.653
661.269
642.509
626.795
614.327
605.524
599.524
595.15
591.907
589.519
587.801
586.62
585.903
585.594
585.659
586.097
586.928
588.168
589.857
592.065
594.86
598.331
602.482
607.227
612.369
617.562
622.381
627.37
642.355
664.585
681.946
692.744
702.771
708.563
709.743
715.698
727.246
730.072
719.34
705.112
686.07
665.347
646.989
633.218
624.819
622.382
625.529
637.68
1052.46
1047.79
1043.65
1039.88
1036.23
1032.59
1029.03
1025.44
1021.9
1018.32
1014.75
1011.16
1007.6
1004.04
1000.53
997.044
993.615
990.239
986.926
983.677
980.505
977.413
974.419
971.541
968.797
966.213
963.802
961.582
959.557
957.73
956.095
954.626
953.291
952.037
950.782
949.425
947.827
945.809
943.093
938.318
930.337
918.762
903.486
884.696
862.874
838.66
814.201
787.537
760.364
734.043
708.829
685.347
663.93
645.11
629.3
616.668
607.671
601.553
597.103
593.82
591.413
589.698
588.539
587.86
587.606
587.741
588.267
589.209
590.587
592.45
594.88
597.958
601.788
606.38
611.649
617.381
623.204
628.617
634.232
650.602
674.048
691.626
702.472
712.392
716.926
717.574
724.375
733.166
731.516
718.341
700.489
677.326
654.09
635.25
622.444
615.882
615.871
621.497
636.43
1052.47
1047.82
1043.7
1039.92
1036.27
1032.64
1029.08
1025.49
1021.94
1018.37
1014.82
1011.25
1007.7
1004.16
1000.66
997.181
993.756
990.378
987.063
983.812
980.64
977.559
974.585
971.736
969.031
966.484
964.115
961.935
959.953
958.17
956.582
955.169
953.895
952.715
951.542
950.278
948.785
946.882
944.349
940.129
932.719
921.631
906.777
888.334
866.757
842.718
816.662
789.974
763.211
736.879
711.669
688.088
666.648
647.776
631.879
619.148
609.945
603.702
599.17
595.839
593.413
591.702
590.567
589.93
589.735
589.945
590.565
591.627
593.155
595.208
597.882
601.274
605.503
610.592
616.455
622.874
629.453
635.643
642.154
660.131
684.786
702.423
713.235
722.836
725.907
726.037
733.007
738.021
731.548
716.834
693.224
665.694
640.736
622.278
610.985
606.639
609.114
617.34
635.185
1052.51
1047.88
1043.77
1039.99
1036.34
1032.71
1029.15
1025.57
1022.03
1018.47
1014.93
1011.38
1007.85
1004.33
1000.84
997.384
993.974
990.611
987.308
984.073
980.92
977.862
974.916
972.099
969.429
966.923
964.596
962.462
960.532
958.807
957.277
955.927
954.722
953.602
952.497
951.295
949.869
948.032
945.566
941.728
934.691
923.869
909.176
890.8
869.271
845.231
819.556
792.914
766.071
739.755
714.544
690.985
669.518
650.6
634.611
621.759
612.346
605.969
601.352
597.973
595.528
593.824
592.715
592.123
591.99
592.28
593.001
594.191
595.881
598.141
601.083
604.819
609.492
615.139
621.677
628.887
636.378
643.565
651.295
671.118
696.919
714.448
725.139
734.163
735.589
735.165
740.509
741.51
730.302
711.007
682.481
651.639
626.064
608.792
599.475
597.483
602.364
613.168
633.972
1052.54
1047.93
1043.83
1040.05
1036.41
1032.78
1029.22
1025.64
1022.1
1018.55
1015.02
1011.48
1007.97
1004.46
1000.99
997.549
994.15
990.798
987.509
984.289
981.155
978.119
975.201
972.414
969.779
967.312
965.029
962.943
961.064
959.392
957.921
956.629
955.487
954.429
953.387
952.256
950.893
949.131
946.749
943.245
936.65
926.195
911.755
893.559
872.149
848.197
822.482
795.863
769.066
742.773
717.584
694.022
672.537
653.568
637.488
624.518
614.884
608.362
603.658
600.229
597.767
596.07
594.99
594.446
594.379
594.753
595.582
596.91
598.776
601.26
604.495
608.612
613.778
620.044
627.344
635.468
644.046
652.495
661.823
683.723
710.574
727.798
738.277
746.444
746.068
744.766
746.883
743.672
729.136
703.415
669.393
636.006
610.955
595.618
588.58
588.895
595.929
609.107
632.831
1052.56
1047.98
1043.9
1040.12
1036.48
1032.85
1029.29
1025.72
1022.18
1018.63
1015.11
1011.59
1008.09
1004.59
1001.14
997.704
994.318
990.981
987.709
984.507
981.395
978.385
975.496
972.742
970.143
967.715
965.476
963.438
961.607
959.989
958.573
957.34
956.253
955.262
954.281
953.213
951.92
950.228
947.926
944.67
938.563
928.471
914.297
896.3
875.008
851.144
825.507
798.933
772.18
745.922
720.752
697.198
675.711
656.692
640.521
627.423
617.571
610.895
606.096
602.618
600.137
598.448
597.398
596.904
596.908
597.372
598.317
599.794
601.85
604.578
608.132
612.669
618.376
625.335
633.488
642.655
652.522
662.55
673.908
698.106
725.846
742.574
752.747
759.751