/*--------------------------------*- C++ -*----------------------------------*\
  =========                 |
  \\      /  F ield         | OpenFOAM: The Open Source CFD Toolbox
   \\    /   O peration     | Website:  https://openfoam.org
    \\  /    A nd           | Version:  9
     \\/     M anipulation  |
\*---------------------------------------------------------------------------*/
FoamFile
{
    format      ascii;
    class       volVectorField;
    location    "2250";
    object      U;
}
// * * * * * * * * * * * * * * * * * * * * * * * * * * * * * * * * * * * * * //

dimensions      [0 1 -1 0 0 0 0];

internalField   nonuniform List<vector> 
13538
(
(1.15186 -3.55218e-05 -8.3692e-21)
(1.15214 -9.72275e-05 1.76178e-20)
(1.15232 -0.000182946 9.2638e-21)
(1.15248 -0.000263092 -2.00972e-20)
(1.15261 -0.00034766 1.17659e-20)
(1.15273 -0.000433355 8.02867e-22)
(1.15284 -0.000521372 1.26153e-20)
(1.15294 -0.00061186 0)
(1.15304 -0.000705451 5.28938e-22)
(1.15314 -0.000802492 -5.606e-22)
(1.15324 -0.000903546 -2.00271e-20)
(1.15333 -0.00100902 7.06387e-22)
(1.15343 -0.00111943 1.07637e-20)
(1.15352 -0.00123523 1.31248e-20)
(1.15362 -0.00135688 4.56382e-22)
(1.15372 -0.00148485 -8.55308e-21)
(1.15382 -0.00161963 9.84566e-21)
(1.15392 -0.00176166 0)
(1.15403 -0.00191143 1.08874e-20)
(1.15413 -0.00206941 -6.31096e-21)
(1.15424 -0.00223602 -3.09115e-22)
(1.15436 -0.00241175 0)
(1.15447 -0.00259699 1.73986e-20)
(1.1546 -0.00279218 -1.01507e-20)
(1.15472 -0.00299771 5.32449e-21)
(1.15485 -0.00321397 5.92696e-21)
(1.15499 -0.00344134 0)
(1.15514 -0.00368022 7.83681e-21)
(1.15529 -0.003931 7.74736e-21)
(1.15545 -0.00419416 8.93599e-21)
(1.15562 -0.00447026 -1.84015e-23)
(1.1558 -0.00475993 5.64614e-21)
(1.156 -0.00506406 -6.56219e-21)
(1.15621 -0.00538372 7.07817e-21)
(1.15644 -0.00572022 0)
(1.15669 -0.0060754 -4.42785e-22)
(1.15696 -0.00645129 -3.4532e-22)
(1.15726 -0.00685065 6.5657e-21)
(1.15759 -0.00727667 -1.38372e-20)
(1.15796 -0.00773324 -1.53322e-20)
(1.15836 -0.00822487 -9.57522e-21)
(1.1588 -0.0087569 -6.55139e-22)
(1.15928 -0.0093351 -1.17049e-20)
(1.1598 -0.00996646 8.64955e-22)
(1.16038 -0.0106581 -4.76922e-22)
(1.161 -0.0114183 -9.43736e-21)
(1.16168 -0.0122552 -9.51503e-21)
(1.1624 -0.0131782 2.43381e-20)
(1.16318 -0.0141969 6.19898e-21)
(1.164 -0.0153206 -8.10259e-21)
(1.16488 -0.0165592 9.18963e-21)
(1.1658 -0.0179222 6.37236e-22)
(1.16676 -0.0194192 1.15315e-20)
(1.16776 -0.0210591 2.64578e-23)
(1.16879 -0.022851 -4.4683e-22)
(1.16986 -0.0248022 -7.99383e-21)
(1.17095 -0.0269205 5.64851e-22)
(1.17206 -0.0292118 -1.07411e-20)
(1.17318 -0.0316824 1.11913e-20)
(1.17432 -0.0343365 4.82642e-22)
(1.17546 -0.0371779 4.37576e-22)
(1.17661 -0.0402095 -8.22513e-21)
(1.17776 -0.0434328 0)
(1.17892 -0.0468497 1.94329e-20)
(1.18007 -0.0504591 1.03373e-20)
(1.18124 -0.0542621 8.61666e-22)
(1.18241 -0.0582556 0)
(1.18361 -0.06244 -7.33642e-21)
(1.18483 -0.0668103 -1.59744e-20)
(1.18609 -0.071367 0)
(1.18741 -0.0761022 -9.92932e-21)
(1.18881 -0.0810141 1.02207e-20)
(1.19029 -0.0860944 1.14209e-20)
(1.19189 -0.0913389 0)
(1.19363 -0.0967348 -7.52683e-21)
(1.19553 -0.102272 -8.45202e-21)
(1.19764 -0.107939 7.36942e-23)
(1.19998 -0.113709 -2.43261e-22)
(1.20258 -0.119571 -1.1201e-20)
(1.20548 -0.125478 -6.46688e-21)
(1.20872 -0.13143 1.46766e-20)
(1.21233 -0.137314 -8.50065e-21)
(1.21633 -0.143208 -9.62795e-21)
(1.22078 -0.148842 1.09126e-20)
(1.22565 -0.154484 1.19977e-20)
(1.23104 -0.159532 -7.02471e-21)
(1.23679 -0.164734 7.97911e-21)
(1.2432 -0.168746 0)
(1.24969 -0.173383 1.0246e-20)
(1.25713 -0.175793 -7.47964e-22)
(1.26403 -0.179961 8.16801e-21)
(1.27257 -0.180054 6.27367e-23)
(1.27906 -0.184375 -4.68472e-22)
(1.28842 -0.181017 -5.60764e-22)
(1.29305 -0.186782 0)
(1.31721 -0.178684 -2.2419e-20)
(1.35441 -0.19654 0)
(1.33541 -0.196752 -4.92169e-22)
(0.722737 -0.11236 9.55026e-22)
(1.15183 -3.88423e-05 -1.61839e-20)
(1.15211 -0.000102388 1.49481e-22)
(1.15229 -0.000188326 -1.88733e-20)
(1.15244 -0.000269692 2.16641e-20)
(1.15257 -0.000354672 1.19142e-20)
(1.15269 -0.000441613 1.00634e-20)
(1.1528 -0.000530702 9.70856e-22)
(1.1529 -0.000622487 -1.55504e-20)
(1.153 -0.000717318 0)
(1.15309 -0.000815663 -1.66498e-20)
(1.15319 -0.000917983 4.93098e-22)
(1.15328 -0.00102474 -1.32274e-21)
(1.15337 -0.00113641 -1.10614e-20)
(1.15347 -0.00125346 -2.44664e-20)
(1.15356 -0.00137638 1.357e-20)
(1.15366 -0.00150562 2.2915e-20)
(1.15375 -0.00164167 8.29608e-21)
(1.15385 -0.00178502 -1.0388e-20)
(1.15395 -0.00193615 -1.962e-20)
(1.15406 -0.00209554 0)
(1.15416 -0.00226367 -1.99014e-20)
(1.15427 -0.00244102 8.70669e-22)
(1.15439 -0.00262805 -8.12065e-21)
(1.1545 -0.0028252 0)
(1.15462 -0.00303296 0)
(1.15475 -0.00325175 -1.12661e-20)
(1.15488 -0.00348203 -3.85476e-23)
(1.15502 -0.00372429 8.24159e-22)
(1.15516 -0.00397901 0)
(1.15532 -0.00424678 0)
(1.15548 -0.00452822 6.11757e-22)
(1.15566 -0.00482413 -1.23002e-20)
(1.15584 -0.00513546 7.29989e-22)
(1.15604 -0.00546338 -6.97788e-21)
(1.15626 -0.00580936 -7.48043e-21)
(1.1565 -0.00617516 -8.97019e-21)
(1.15676 -0.00656304 -9.65946e-21)
(1.15704 -0.00697564 1.17497e-20)
(1.15736 -0.00741619 6.71367e-21)
(1.1577 -0.00788853 5.75779e-21)
(1.15808 -0.00839702 1.02289e-21)
(1.15849 -0.00894683 0)
(1.15894 -0.00954364 1.15109e-20)
(1.15943 -0.0101941 1.24613e-20)
(1.15997 -0.0109051 0)
(1.16056 -0.0116844 8.7215e-21)
(1.16118 -0.0125401 1.94016e-20)
(1.16186 -0.0134812 -1.14626e-20)
(1.16258 -0.0145165 -8.25567e-22)
(1.16335 -0.0156554 -1.22057e-20)
(1.16416 -0.016907 -2.54928e-20)
(1.16502 -0.0182811 1.09154e-20)
(1.16591 -0.0197864 -1.22942e-20)
(1.16683 -0.0214319 0)
(1.16779 -0.0232264 -1.39771e-20)
(1.16878 -0.0251771 1.77523e-20)
(1.16978 -0.0272921 -1.04391e-21)
(1.1708 -0.0295772 -9.26317e-21)
(1.17184 -0.0320386 -2.15052e-20)
(1.17288 -0.034681 1.24495e-20)
(1.17393 -0.0375087 8.55572e-22)
(1.17499 -0.0405245 4.31218e-23)
(1.17604 -0.0437316 1.48316e-20)
(1.1771 -0.0471316 -1.34098e-22)
(1.17816 -0.0507243 -1.04785e-20)
(1.17923 -0.0545119 2.16104e-20)
(1.18031 -0.0584927 -1.25798e-20)
(1.1814 -0.062668 1.38271e-20)
(1.18253 -0.0670331 8.23867e-21)
(1.1837 -0.0715903 -1.03135e-21)
(1.18493 -0.0763332 5.56522e-22)
(1.18622 -0.0812619 -7.84528e-22)
(1.18762 -0.0863678 -1.15974e-20)
(1.18913 -0.0916499 -3.99606e-22)
(1.19078 -0.0970957 8.67474e-22)
(1.19261 -0.102698 -7.92998e-21)
(1.19464 -0.108444 2.80584e-22)
(1.19691 -0.114312 -2.95594e-22)
(1.19946 -0.120291 1.13407e-20)
(1.20232 -0.12633 -1.18803e-20)
(1.20554 -0.132441 -7.46373e-21)
(1.20914 -0.138498 1.30896e-22)
(1.21316 -0.144595 -1.37689e-22)
(1.21766 -0.150432 0)
(1.2226 -0.15633 -4.29861e-22)
(1.22811 -0.161589 0)
(1.234 -0.167108 1.5325e-20)
(1.2406 -0.171277 8.7406e-21)
(1.24731 -0.176314 0)
(1.25504 -0.178738 -3.72529e-22)
(1.26215 -0.183439 3.91433e-22)
(1.27109 -0.183243 -1.4532e-20)
(1.27778 -0.188359 1.70891e-20)
(1.28791 -0.184162 -5.60057e-22)
(1.2919 -0.190899 -1.6603e-22)
(1.31325 -0.180847 1.13794e-20)
(1.34606 -0.20103 0)
(1.3516 -0.205388 0)
(0.758648 -0.123464 -3.61263e-21)
(1.15181 -3.97164e-05 8.07365e-22)
(1.15207 -0.000105239 -1.42158e-20)
(1.15225 -0.000191568 1.53559e-20)
(1.1524 -0.00027436 -2.35444e-21)
(1.15253 -0.000360077 -7.89742e-21)
(1.15264 -0.000448226 -2.02431e-21)
(1.15275 -0.000538551 -1.4012e-20)
(1.15285 -0.000631656 3.99855e-21)
(1.15295 -0.000727843 -1.59912e-20)
(1.15304 -0.000827572 1.83915e-20)
(1.15313 -0.000931278 9.03796e-21)
(1.15322 -0.00103942 0)
(1.15331 -0.00115247 1.03835e-20)
(1.1534 -0.00127089 1.06147e-20)
(1.15349 -0.00139517 -2.44497e-20)
(1.15359 -0.00152576 -1.66421e-20)
(1.15368 -0.00166316 9.23242e-21)
(1.15377 -0.00180785 9.05947e-21)
(1.15387 -0.00196032 5.58143e-22)
(1.15397 -0.00212107 1.3828e-21)
(1.15407 -0.00229058 1.23881e-20)
(1.15417 -0.00246934 7.60121e-23)
(1.15428 -0.00265785 -1.80336e-21)
(1.15439 -0.0028566 8.99944e-21)
(1.15451 -0.00306607 6.55782e-21)
(1.15463 -0.00328678 2.02026e-20)
(1.15475 -0.00351922 -9.5832e-21)
(1.15488 -0.00376397 0)
(1.15502 -0.00402158 -9.06518e-22)
(1.15517 -0.00429274 9.60917e-22)
(1.15532 -0.00457818 -1.14146e-21)
(1.15549 -0.00487882 -8.44823e-21)
(1.15566 -0.00519571 0)
(1.15585 -0.00553013 -8.19952e-22)
(1.15606 -0.00588366 8.25094e-21)
(1.15629 -0.0062582 6.84058e-21)
(1.15653 -0.00665603 2.87324e-21)
(1.1568 -0.0070799 -1.35161e-20)
(1.1571 -0.00753302 3.02378e-21)
(1.15742 -0.00801923 1.17036e-20)
(1.15778 -0.00854286 0)
(1.15817 -0.00910893 1.18032e-21)
(1.15859 -0.00972304 -1.25096e-21)
(1.15905 -0.0103915 -1.22988e-20)
(1.15955 -0.0111211 -1.78136e-21)
(1.1601 -0.0119193 1.88826e-21)
(1.16068 -0.0127938 -9.27649e-21)
(1.16131 -0.0137532 1.33534e-21)
(1.16198 -0.014806 -1.41525e-21)
(1.16269 -0.0159612 9.40724e-22)
(1.16344 -0.0172275 1.08699e-21)
(1.16423 -0.0186144 1.11789e-21)
(1.16505 -0.0201304 1.76605e-20)
(1.1659 -0.021784 -1.06423e-20)
(1.16678 -0.0235838 1.45409e-20)
(1.16768 -0.0255372 -1.70308e-21)
(1.1686 -0.027652 0)
(1.16953 -0.0299344 2.60501e-20)
(1.17048 -0.0323903 1.02217e-20)
(1.17143 -0.0350252 0)
(1.17239 -0.0378433 0)
(1.17335 -0.0408488 -1.47055e-20)
(1.17431 -0.0440443 -1.47675e-20)
(1.17527 -0.0474333 -8.71533e-21)
(1.17623 -0.0510161 1.99355e-20)
(1.1772 -0.0547962 -1.18794e-20)
(1.17818 -0.0587721 2.11193e-20)
(1.17918 -0.0629468 -1.07034e-20)
(1.18022 -0.0673172 -1.40869e-20)
(1.18129 -0.0718859 -9.83514e-22)
(1.18242 -0.0766476 1.04126e-21)
(1.18362 -0.0816048 -1.10518e-20)
(1.18493 -0.0867505 6.04364e-22)
(1.18635 -0.0920829 -9.71904e-21)
(1.18791 -0.0975949 -1.32884e-20)
(1.18966 -0.103275 7.57632e-21)
(1.19161 -0.109119 -1.5776e-20)
(1.19381 -0.115099 8.91196e-21)
(1.1963 -0.121211 -1.01052e-20)
(1.19911 -0.127403 1.30288e-20)
(1.20229 -0.133685 -1.39356e-20)
(1.20587 -0.139931 -5.04673e-22)
(1.20991 -0.146241 -1.66897e-20)
(1.21444 -0.152293 0)
(1.21946 -0.158447 -1.22165e-20)
(1.22507 -0.163918 3.99051e-22)
(1.23111 -0.169741 -3.05316e-20)
(1.2379 -0.174066 8.53652e-21)
(1.24481 -0.17947 -1.00464e-20)
(1.25283 -0.181899 -1.12752e-20)
(1.26018 -0.187081 -1.28943e-20)
(1.26953 -0.186586 2.92064e-20)
(1.27639 -0.192401 -1.67619e-20)
(1.28724 -0.18748 1.84121e-20)
(1.29118 -0.195315 8.26908e-23)
(1.31202 -0.183803 -8.69649e-23)
(1.33956 -0.204449 -8.18659e-22)
(1.35818 -0.210147 -1.30895e-20)
(0.77804 -0.130944 2.67849e-20)
(1.15179 -4.04449e-05 -1.25019e-20)
(1.15204 -0.000107918 0)
(1.15221 -0.000194629 -2.00955e-21)
(1.15236 -0.000278767 2.1307e-21)
(1.15249 -0.00036525 1.82848e-20)
(1.1526 -0.000454421 -3.05927e-20)
(1.1527 -0.000545858 0)
(1.1528 -0.000640112 1.11499e-20)
(1.1529 -0.000737498 1.90827e-20)
(1.15299 -0.000838441 -3.66174e-21)
(1.15308 -0.000943364 -1.59101e-20)
(1.15317 -0.00105273 -1.52206e-20)
(1.15325 -0.00116699 -4.30938e-21)
(1.15334 -0.00128661 1.20065e-20)
(1.15343 -0.00141207 2.58204e-20)
(1.15352 -0.00154385 -1.64316e-21)
(1.1536 -0.00168243 -1.71724e-20)
(1.15369 -0.00182831 2.00897e-21)
(1.15379 -0.00198199 9.35657e-21)
(1.15388 -0.00214395 1.28641e-21)
(1.15398 -0.00231473 -1.36358e-21)
(1.15408 -0.00249481 0)
(1.15418 -0.00268473 0)
(1.15428 -0.002885 -7.85203e-21)
(1.15439 -0.00309616 -8.72983e-21)
(1.15451 -0.00331876 6.1629e-22)
(1.15462 -0.00355336 1.08942e-20)
(1.15475 -0.0038006 9.91428e-21)
(1.15488 -0.00406112 -1.09937e-20)
(1.15502 -0.00433567 1.42976e-20)
(1.15516 -0.00462511 -3.0618e-21)
(1.15532 -0.00493041 1.18572e-20)
(1.15549 -0.00525274 8.14354e-23)
(1.15567 -0.0055935 -1.42747e-21)
(1.15587 -0.00595432 1.28937e-20)
(1.15608 -0.00633719 6.82745e-21)
(1.15631 -0.00674443 7.75551e-21)
(1.15656 -0.00717884 1.18318e-21)
(1.15684 -0.00764365 1.2266e-20)
(1.15714 -0.00814264 -1.47449e-20)
(1.15748 -0.00868008 0)
(1.15784 -0.00926089 -1.61948e-20)
(1.15823 -0.0098905 0)
(1.15866 -0.010575 -1.2067e-20)
(1.15913 -0.011321 3.16487e-21)
(1.15963 -0.0121355 1.22003e-20)
(1.16018 -0.0130262 1.59441e-20)
(1.16076 -0.0140012 -1.57554e-20)
(1.16137 -0.0150686 -1.43881e-20)
(1.16203 -0.0162371 1.42321e-20)
(1.16271 -0.0175152 1.07246e-21)
(1.16344 -0.0189118 2.04794e-21)
(1.16419 -0.0204354 -2.3107e-20)
(1.16497 -0.0220942 1.29696e-20)
(1.16577 -0.0238968 -1.092e-20)
(1.16659 -0.0258501 -1.22599e-20)
(1.16742 -0.0279622 1.37303e-20)
(1.16827 -0.030239 -3.20501e-20)
(1.16913 -0.0326873 -1.7106e-20)
(1.16999 -0.0353125 -1.90341e-20)
(1.17086 -0.0381189 0)
(1.17172 -0.0411116 2.67343e-21)
(1.17258 -0.0442937 -3.40293e-21)
(1.17345 -0.0476694 1.84366e-21)
(1.17431 -0.05124 -1.8497e-20)
(1.17519 -0.0550095 -4.82709e-23)
(1.17607 -0.0589771 -9.42323e-21)
(1.17697 -0.0631485 0)
(1.17791 -0.0675198 1.14932e-20)
(1.17888 -0.0720958 1.697e-21)
(1.17991 -0.0768744 1.46983e-20)
(1.18101 -0.0818552 0)
(1.18221 -0.0870365 9.1723e-21)
(1.18354 -0.0924175 1.12786e-20)
(1.18501 -0.0979898 1.26772e-20)
(1.18666 -0.103748 0)
(1.18852 -0.109685 1.27333e-21)
(1.19064 -0.115778 -9.05476e-21)
(1.19305 -0.122022 1.02638e-20)
(1.1958 -0.128366 7.3697e-22)
(1.19893 -0.134824 1.2542e-20)
(1.20249 -0.141266 -1.33686e-20)
(1.20652 -0.147797 3.29746e-20)
(1.21107 -0.154082 0)
(1.21614 -0.160504 0)
(1.22185 -0.166215 0)
(1.22803 -0.172358 1.52114e-20)
(1.235 -0.176876 -4.67941e-22)
(1.24213 -0.182669 1.03161e-20)
(1.25044 -0.185138 1.10138e-20)
(1.25804 -0.190818 1.29911e-20)
(1.26784 -0.190063 -1.43566e-20)
(1.27485 -0.196573 1.63401e-20)
(1.28652 -0.19095 -3.67472e-20)
(1.29019 -0.199816 0)
(1.31063 -0.187111 -1.13322e-20)
(1.33209 -0.207722 8.18189e-22)
(1.36499 -0.214034 1.28773e-20)
(0.801005 -0.138042 -5.091e-20)
(1.15177 -4.08711e-05 2.64842e-20)
(1.15201 -0.000110162 2.63746e-20)
(1.15218 -0.000197168 0)
(1.15232 -0.000282557 0)
(1.15245 -0.000369826 -1.80705e-20)
(1.15256 -0.000459915 1.97525e-20)
(1.15266 -0.000552371 0)
(1.15276 -0.000647667 -2.92463e-21)
(1.15285 -0.00074614 4.70581e-21)
(1.15294 -0.000848187 6.37263e-23)
(1.15302 -0.000954221 1.38575e-20)
(1.15311 -0.00106469 1.51851e-20)
(1.15319 -0.00118004 1.06455e-20)
(1.15328 -0.00130076 -7.92976e-21)
(1.15336 -0.00142731 -1.58419e-20)
(1.15345 -0.00156016 3.11834e-21)
(1.15353 -0.00169981 -1.68711e-21)
(1.15362 -0.00184676 0)
(1.1537 -0.00200151 -1.63016e-20)
(1.15379 -0.00216458 0)
(1.15388 -0.00233648 0)
(1.15398 -0.00251775 1.10777e-20)
(1.15407 -0.00270892 0)
(1.15417 -0.00291056 0)
(1.15428 -0.00312323 1.51588e-20)
(1.15438 -0.00334752 -1.126e-20)
(1.1545 -0.00358406 3.62233e-21)
(1.15461 -0.00383353 -1.11442e-20)
(1.15474 -0.00409666 1.10569e-20)
(1.15487 -0.00437426 -1.40346e-20)
(1.155 -0.00466728 -1.47021e-20)
(1.15515 -0.00497678 2.20937e-21)
(1.15531 -0.00530401 -2.34202e-21)
(1.15548 -0.00565044 -1.05094e-20)
(1.15566 -0.00601779 -1.27493e-20)
(1.15586 -0.0064081 -1.44638e-20)
(1.15608 -0.00682377 -1.53295e-20)
(1.15632 -0.00726761 8.72809e-21)
(1.15658 -0.00774281 6.07309e-22)
(1.15686 -0.00825317 -1.4234e-21)
(1.15717 -0.00880287 -1.30042e-20)
(1.15751 -0.00939674 1.60156e-20)
(1.15787 -0.01004 0)
(1.15827 -0.0107387 7.8749e-21)
(1.1587 -0.011499 1.54688e-20)
(1.15917 -0.0123278 -2.81551e-20)
(1.15966 -0.0132326 -3.03537e-20)
(1.1602 -0.014221 1.5763e-20)
(1.16076 -0.0153009 -6.29588e-21)
(1.16136 -0.0164807 -7.86164e-21)
(1.16199 -0.0177686 1.01939e-20)
(1.16265 -0.0191732 -1.38344e-20)
(1.16333 -0.0207026 0)
(1.16404 -0.0223651 0)
(1.16476 -0.0241687 1.08051e-20)
(1.16551 -0.0261206 1.36224e-20)
(1.16626 -0.0282289 -2.59037e-20)
(1.16702 -0.0304995 -2.29148e-21)
(1.16779 -0.0329392 1.89001e-20)
(1.16856 -0.0355538 1.88352e-20)
(1.16934 -0.0383482 0)
(1.17011 -0.0413278 -3.30685e-22)
(1.17088 -0.0444962 3.06242e-21)
(1.17164 -0.0478584 7.017e-23)
(1.17241 -0.0514161 -1.8334e-21)
(1.17319 -0.0551749 -2.11118e-21)
(1.17397 -0.0591352 2.07364e-20)
(1.17477 -0.0633019 5.39542e-23)
(1.1756 -0.0676749 -1.19853e-20)
(1.17647 -0.0722578 0)
(1.1774 -0.0770513 -1.44319e-21)
(1.1784 -0.0820568 0)
(1.17949 -0.0872736 -9.0811e-21)
(1.18071 -0.0927008 0)
(1.18208 -0.0983352 1.18426e-20)
(1.18363 -0.10417 -1.33424e-20)
(1.18539 -0.110202 2.92363e-20)
(1.18742 -0.11641 -9.77366e-22)
(1.18974 -0.122789 1.65896e-20)
(1.19241 -0.129291 1.2788e-21)
(1.19549 -0.13593 -1.17874e-20)
(1.199 -0.142578 1.54856e-20)
(1.20301 -0.149336 -1.77497e-20)
(1.20757 -0.15587 1.70809e-20)
(1.2127 -0.162569 2.74157e-21)
(1.21848 -0.168548 -6.75366e-22)
(1.2248 -0.175015 8.9584e-23)
(1.23195 -0.179763 -1.81419e-20)
(1.2393 -0.185943 1.9304e-20)
(1.24792 -0.188494 -2.21069e-20)
(1.25578 -0.194667 8.35959e-22)
(1.26604 -0.193699 -1.5298e-20)
(1.27322 -0.200859 -1.66805e-20)
(1.28571 -0.194605 3.61836e-20)
(1.28919 -0.204416 -2.05261e-20)
(1.30992 -0.190752 1.13193e-20)
(1.32491 -0.210723 -1.3801e-20)
(1.36987 -0.216798 8.30854e-22)
(0.821 -0.144188 4.54425e-20)
(1.15175 -4.12162e-05 0)
(1.15198 -0.000112154 -1.75871e-21)
(1.15215 -0.00019938 -3.4533e-21)
(1.15229 -0.000285886 3.66234e-21)
(1.15241 -0.000373924 -1.77192e-20)
(1.15252 -0.000464832 -6.98691e-23)
(1.15262 -0.000558209 -8.02946e-23)
(1.15271 -0.000654438 -1.79462e-20)
(1.1528 -0.000753883 1.42657e-20)
(1.15289 -0.000856913 9.25204e-21)
(1.15297 -0.000963934 -1.36504e-20)
(1.15305 -0.0010754 1.98538e-21)
(1.15313 -0.00119173 -1.7653e-20)
(1.15322 -0.00131342 -2.32063e-21)
(1.1533 -0.00144093 1.00849e-20)
(1.15338 -0.00157473 0)
(1.15346 -0.00171533 1.556e-20)
(1.15354 -0.00186323 -1.52512e-20)
(1.15362 -0.00201893 -8.17892e-22)
(1.15371 -0.00218297 0)
(1.15379 -0.00235588 0)
(1.15388 -0.0025382 -8.25325e-21)
(1.15397 -0.0027305 -4.3759e-21)
(1.15407 -0.00293335 3.26305e-21)
(1.15416 -0.00314738 -1.67715e-20)
(1.15426 -0.0033732 1.75851e-20)
(1.15437 -0.00361149 6.45069e-21)
(1.15448 -0.003863 9.63636e-21)
(1.15459 -0.00412849 -1.07645e-20)
(1.15472 -0.00440888 0)
(1.15485 -0.00470516 2.62508e-20)
(1.15498 -0.00501846 1.91726e-21)
(1.15513 -0.00535012 0)
(1.15529 -0.00570169 1.04014e-20)
(1.15546 -0.00607492 0)
(1.15565 -0.00647194 1.66773e-21)
(1.15585 -0.00689516 1.34042e-20)
(1.15607 -0.00734742 -6.47698e-21)
(1.15631 -0.00783191 -1.21446e-20)
(1.15657 -0.00835236 0)
(1.15686 -0.00891291 1.126e-20)
(1.15717 -0.00951825 -1.18909e-20)
(1.15751 -0.0101735 0)
(1.15787 -0.0108845 2.414e-21)
(1.15827 -0.0116573 -1.36093e-20)
(1.1587 -0.0124985 2.58348e-20)
(1.15915 -0.0134152 1.27658e-20)
(1.15964 -0.0144149 2.04949e-21)
(1.16015 -0.0155053 1.89223e-20)
(1.1607 -0.0166942 5.55038e-21)
(1.16127 -0.0179898 2.80396e-21)
(1.16186 -0.0194001 1.36986e-20)
(1.16248 -0.0209334 -1.90751e-21)
(1.16311 -0.0225975 4.16643e-21)
(1.16377 -0.0244005 1.3185e-22)
(1.16443 -0.0263495 1.73792e-20)
(1.1651 -0.0284523 1.22856e-20)
(1.16578 -0.0307153 1.37098e-20)
(1.16647 -0.033145 0)
(1.16715 -0.0357481 -1.52873e-20)
(1.16783 -0.0385292 0)
(1.16851 -0.0414947 1.04201e-20)
(1.16918 -0.0446485 0)
(1.16985 -0.0479958 0)
(1.17052 -0.05154 0)
(1.1712 -0.0552872 0)
(1.17188 -0.0592377 2.07781e-22)
(1.17258 -0.0633995 -1.91105e-20)
(1.1733 -0.0677721 1.0518e-20)
(1.17407 -0.072361 1.03848e-20)
(1.17488 -0.077168 -1.29906e-20)
(1.17578 -0.0821958 0)
(1.17676 -0.0874458 1.98219e-21)
(1.17787 -0.0929185 -2.10332e-21)
(1.17912 -0.0986132 -1.03321e-20)
(1.18056 -0.104525 1.02853e-20)
(1.18222 -0.11065 -1.01935e-20)
(1.18414 -0.116973 -3.6794e-21)
(1.18637 -0.123487 -1.56708e-20)
(1.18895 -0.130151 0)
(1.19195 -0.136973 2.2901e-20)
(1.19541 -0.143836 -1.76203e-21)
(1.19939 -0.150829 -1.41803e-20)
(1.20394 -0.157628 -1.75258e-20)
(1.2091 -0.164611 2.19119e-20)
(1.21495 -0.170887 -1.34337e-20)
(1.2214 -0.177689 9.43403e-22)
(1.22872 -0.182709 1.07641e-22)
(1.2363 -0.189272 -2.06638e-20)
(1.24522 -0.19197 2.08721e-20)
(1.25336 -0.198611 6.91915e-22)
(1.26411 -0.197499 1.54058e-20)
(1.27148 -0.205257 -1.07319e-21)
(1.28483 -0.198456 -1.73219e-20)
(1.28805 -0.20907 2.12003e-20)
(1.30953 -0.194614 0)
(1.31819 -0.213751 -1.31044e-20)
(1.37394 -0.219042 -1.69557e-21)
(0.840807 -0.14999 -2.0465e-20)
(1.15174 -4.14863e-05 0)
(1.15195 -0.000113908 -4.9326e-20)
(1.15212 -0.00020128 3.10803e-21)
(1.15225 -0.000288744 -1.31689e-20)
(1.15237 -0.000377511 1.55079e-20)
(1.15248 -0.000469152 -2.07957e-21)
(1.15257 -0.000563345 -7.46197e-23)
(1.15267 -0.000660405 2.27859e-20)
(1.15275 -0.000760707 -2.92229e-20)
(1.15284 -0.000864609 -2.66295e-20)
(1.15292 -0.000972515 1.35225e-20)
(1.153 -0.00108485 1.83267e-21)
(1.15308 -0.00120205 1.33116e-20)
(1.15315 -0.00132459 -1.68181e-20)
(1.15323 -0.00145293 -9.98765e-21)
(1.15331 -0.00158758 2.71689e-21)
(1.15338 -0.001729 -1.20651e-20)
(1.15346 -0.00187772 1.36086e-20)
(1.15354 -0.00203425 2.52005e-20)
(1.15362 -0.00219913 0)
(1.1537 -0.0023729 -1.69152e-20)
(1.15378 -0.00255613 -9.36604e-21)
(1.15387 -0.0027494 2.76436e-21)
(1.15396 -0.00295332 -2.93034e-21)
(1.15405 -0.00316853 0)
(1.15414 -0.00339569 -2.95838e-20)
(1.15424 -0.00363553 7.25634e-21)
(1.15434 -0.00388883 -7.30863e-22)
(1.15445 -0.00415643 8.20801e-22)
(1.15456 -0.00443928 1.47703e-21)
(1.15469 -0.00473845 -2.72899e-20)
(1.15481 -0.00505514 0)
(1.15495 -0.00539075 -1.7707e-20)
(1.1551 -0.00574688 2.2282e-21)
(1.15526 -0.00612534 2.68905e-21)
(1.15543 -0.0065283 -4.37591e-21)
(1.15562 -0.00695821 1.44206e-20)
(1.15582 -0.00741789 0)
(1.15604 -0.00791054 1.65911e-20)
(1.15628 -0.00843983 9.4631e-21)
(1.15655 -0.00900985 2.93849e-21)
(1.15683 -0.0096252 1.03597e-20)
(1.15714 -0.0102908 0)
(1.15747 -0.0110124 0)
(1.15783 -0.0117958 0)
(1.15822 -0.0126475 1.85308e-21)
(1.15864 -0.0135742 2.27832e-22)
(1.15908 -0.0145832 -1.70886e-20)
(1.15954 -0.0156819 2.10675e-21)
(1.16003 -0.0168779 -2.23333e-21)
(1.16054 -0.0181792 0)
(1.16108 -0.0195934 -3.04675e-21)
(1.16163 -0.0211287 1.51538e-21)
(1.1622 -0.0227926 1.81737e-21)
(1.16278 -0.0245934 2.15518e-21)
(1.16336 -0.0265378 -1.96343e-20)
(1.16396 -0.0286337 -2.55228e-21)
(1.16456 -0.0308876 -1.10032e-20)
(1.16516 -0.0333063 -1.65395e-21)
(1.16575 -0.0358965 1.50803e-20)
(1.16634 -0.0386631 1.485e-20)
(1.16693 -0.0416134 2.14665e-21)
(1.16751 -0.044751 2.46349e-21)
(1.16808 -0.048083 -2.613e-21)
(1.16865 -0.0516122 1.09993e-20)
(1.16922 -0.0553463 0)
(1.1698 -0.059287 -1.33611e-20)
(1.1704 -0.0634411 1.2231e-22)
(1.17101 -0.0678121 8.13977e-21)
(1.17167 -0.0724049 -9.06322e-21)
(1.17237 -0.0772237 -1.31425e-21)
(1.17315 -0.0822719 0)
(1.17402 -0.0875539 0)
(1.17501 -0.0930696 1.97318e-21)
(1.17615 -0.0988237 -1.02017e-20)
(1.17747 -0.104808 -9.27576e-21)
(1.17901 -0.111027 -1.21647e-20)
(1.18081 -0.117465 -1.45872e-22)
(1.18293 -0.124115 1.62595e-20)
(1.18541 -0.130944 -1.6926e-20)
(1.18832 -0.137951 -1.09112e-20)
(1.19171 -0.145037 -1.17946e-20)
(1.19564 -0.152269 2.90917e-20)
(1.20017 -0.159351 1.88865e-20)
(1.20535 -0.166623 -2.32393e-20)
(1.21126 -0.173229 1.37291e-20)
(1.21782 -0.180363 -1.64982e-21)
(1.2253 -0.185711 0)
(1.23312 -0.192653 -1.86984e-20)
(1.24233 -0.195568 1.44758e-21)
(1.2508 -0.202647 -2.67362e-20)
(1.26202 -0.20148 0)
(1.26963 -0.209772 0)
(1.28384 -0.202527 0)
(1.28684 -0.213789 1.35406e-21)
(1.30945 -0.198694 -2.42134e-20)
(1.31193 -0.216838 2.61364e-20)
(1.37718 -0.220907 0)
(0.858744 -0.155266 -2.53109e-20)
(1.15173 -4.17066e-05 -1.02912e-20)
(1.15193 -0.000115459 4.50002e-20)
(1.15209 -0.000202921 2.49255e-20)
(1.15222 -0.000291182 9.86613e-21)
(1.15233 -0.000380618 6.86887e-21)
(1.15244 -0.000472901 -2.19394e-20)
(1.15253 -0.00056781 8.23867e-21)
(1.15262 -0.000665601 1.29023e-20)
(1.15271 -0.000766652 -9.62714e-22)
(1.15279 -0.000871319 1.40059e-20)
(1.15287 -0.000979984 1.15198e-20)
(1.15294 -0.00109308 0)
(1.15302 -0.00121104 -1.51247e-20)
(1.15309 -0.00133432 3.20839e-20)
(1.15317 -0.0014634 1.69924e-20)
(1.15324 -0.00159875 -4.38726e-21)
(1.15331 -0.00174087 -5.2872e-21)
(1.15338 -0.00189028 0)
(1.15346 -0.00204751 -1.03371e-20)
(1.15353 -0.00221309 -3.56681e-21)
(1.15361 -0.00238759 1.67726e-20)
(1.15369 -0.00257158 1.78326e-20)
(1.15377 -0.00276568 2.52856e-21)
(1.15385 -0.0029705 7.81176e-21)
(1.15394 -0.00318671 -1.0084e-20)
(1.15402 -0.00341503 -4.94379e-22)
(1.15411 -0.0036562 -1.56833e-20)
(1.15421 -0.00391105 -6.58938e-21)
(1.15431 -0.00418047 9.88417e-21)
(1.15441 -0.00446548 -1.25473e-20)
(1.15452 -0.00476718 2.34389e-20)
(1.15464 -0.00508684 -1.0876e-20)
(1.15477 -0.0054259 1.36748e-20)
(1.15491 -0.00578602 0)
(1.15505 -0.00616906 9.01189e-21)
(1.15521 -0.00657722 0)
(1.15538 -0.00701295 -1.42717e-20)
(1.15557 -0.0074791 -1.14923e-20)
(1.15577 -0.00797882 -1.44126e-20)
(1.15599 -0.00851576 -2.00896e-20)
(1.15623 -0.00909393 2.65999e-21)
(1.15649 -0.0097178 -5.85792e-21)
(1.15677 -0.0103923 1.59181e-20)
(1.15707 -0.0111228 1.64744e-20)
(1.1574 -0.0119151 -4.3603e-21)
(1.15775 -0.0127754 -2.00253e-20)
(1.15812 -0.0137102 2.73102e-21)
(1.15851 -0.0147266 1.35222e-20)
(1.15893 -0.0158316 1.19435e-20)
(1.15937 -0.0170329 2.00319e-21)
(1.15982 -0.0183377 -2.0105e-20)
(1.1603 -0.0197541 -7.40844e-21)
(1.16079 -0.0212895 3.05552e-21)
(1.16129 -0.0229516 -1.57991e-20)
(1.16179 -0.0247483 -1.91329e-21)
(1.16231 -0.0266864 2.02857e-21)
(1.16283 -0.028774 -2.37155e-21)
(1.16334 -0.0310173 2.57221e-20)
(1.16386 -0.0334235 -2.78962e-21)
(1.16437 -0.0359995 1.17988e-20)
(1.16487 -0.0387506 -1.30479e-20)
(1.16536 -0.0416839 -1.61855e-20)
(1.16585 -0.0448047 1.57195e-20)
(1.16632 -0.0481196 0)
(1.1668 -0.0516326 -1.35153e-20)
(1.16727 -0.0553523 2.75417e-21)
(1.16774 -0.0592803 0)
(1.16823 -0.0634265 2.02562e-21)
(1.16874 -0.0677933 -6.16044e-21)
(1.16928 -0.0723887 -2.03978e-21)
(1.16987 -0.0772158 0)
(1.17053 -0.0822833 -9.58843e-21)
(1.17128 -0.0875935 0)
(1.17214 -0.0931503 -1.22273e-20)
(1.17315 -0.0989591 8.05397e-21)
(1.17434 -0.105017 9.21535e-21)
(1.17575 -0.111327 1.06134e-20)
(1.17743 -0.117877 0)
(1.17943 -0.124664 -1.60457e-21)
(1.1818 -0.131657 -3.56061e-22)
(1.1846 -0.138854 2.2415e-21)
(1.1879 -0.146166 1.3217e-20)
(1.19176 -0.153646 -1.37242e-20)
(1.19625 -0.161023 -1.84274e-20)
(1.20144 -0.168596 0)
(1.20739 -0.175561 -1.51883e-21)
(1.21406 -0.183032 1.59397e-21)
(1.22168 -0.18876 -1.55043e-20)
(1.22974 -0.196068 1.64782e-20)
(1.23925 -0.199286 2.38819e-20)
(1.24805 -0.206766 2.54854e-20)
(1.25977 -0.205656 -1.90166e-21)
(1.26766 -0.214411 1.98143e-21)
(1.28274 -0.206833 1.84486e-20)
(1.28554 -0.218597 1.36118e-21)
(1.30957 -0.202987 4.43167e-20)
(1.30636 -0.220145 2.63961e-20)
(1.37979 -0.22259 1.67403e-21)
(0.876715 -0.160427 1.91923e-20)
(1.15172 -4.18808e-05 0)
(1.15191 -0.000116817 -2.02044e-20)
(1.15206 -0.000204317 -4.46069e-20)
(1.15219 -0.000293229 2.8221e-21)
(1.1523 -0.000383264 0)
(1.1524 -0.000476103 2.74307e-20)
(1.15249 -0.000571626 0)
(1.15258 -0.000670046 -1.72125e-20)
(1.15266 -0.000771742 1.89055e-20)
(1.15274 -0.000877065 -2.53998e-21)
(1.15282 -0.000986384 -8.74053e-21)
(1.15289 -0.00110012 0)
(1.15296 -0.00121872 0)
(1.15303 -0.00134262 -1.5291e-20)
(1.1531 -0.0014723 -1.89263e-20)
(1.15317 -0.00160825 1.14916e-20)
(1.15324 -0.00175095 0)
(1.15331 -0.00190094 -2.77584e-21)
(1.15338 -0.00205873 6.00937e-21)
(1.15345 -0.00222488 -3.25101e-21)
(1.15352 -0.00239997 1.40089e-20)
(1.15359 -0.00258458 -8.48217e-21)
(1.15367 -0.00277933 -2.29865e-21)
(1.15374 -0.00298488 1.51885e-21)
(1.15382 -0.00320192 1.02663e-21)
(1.1539 -0.00343119 1.28375e-20)
(1.15399 -0.00367346 -1.29908e-20)
(1.15407 -0.00392961 0)
(1.15417 -0.00420058 0)
(1.15426 -0.00448741 9.92438e-21)
(1.15436 -0.00479127 -1.03476e-21)
(1.15447 -0.00511347 2.22572e-20)
(1.15459 -0.0054555 3.35343e-21)
(1.15471 -0.00581904 -3.78027e-21)
(1.15485 -0.00620602 -6.8794e-21)
(1.15499 -0.00661864 -2.49801e-21)
(1.15514 -0.00705936 2.64809e-21)
(1.15531 -0.00753102 1.30652e-20)
(1.1555 -0.00803678 1.83618e-21)
(1.1557 -0.00858018 6.5307e-21)
(1.15591 -0.00916524 2.38738e-21)
(1.15615 -0.00979629 -2.5309e-21)
(1.1564 -0.0104781 -1.28868e-21)
(1.15667 -0.011216 -1.43885e-20)
(1.15696 -0.0120155 2.01984e-21)
(1.15727 -0.0128826 7.21544e-21)
(1.1576 -0.0138238 -2.61311e-21)
(1.15795 -0.0148457 -1.94735e-22)
(1.15832 -0.0159553 -1.05939e-20)
(1.15871 -0.0171598 0)
(1.15911 -0.0184665 1.98992e-21)
(1.15952 -0.0198831 -7.62045e-21)
(1.15995 -0.0214168 -9.82397e-21)
(1.16038 -0.0230752 1.24736e-20)
(1.16082 -0.0248662 0)
(1.16126 -0.0267965 0)
(1.16171 -0.0288742 2.07083e-21)
(1.16214 -0.0311053 -1.17888e-20)
(1.16257 -0.0334978 0)
(1.163 -0.0360578 -1.1722e-20)
(1.16341 -0.038792 1.26633e-20)
(1.16381 -0.0417076 3.86738e-22)
(1.16421 -0.0448098 -1.56195e-20)
(1.16459 -0.048106 -1.46126e-20)
(1.16496 -0.0516014 0)
(1.16533 -0.0553043 0)
(1.1657 -0.0592191 -8.24436e-21)
(1.16607 -0.0633542 9.63276e-21)
(1.16647 -0.0677147 -6.47086e-23)
(1.1669 -0.0723096 1.72201e-21)
(1.16737 -0.0771438 2.01036e-21)
(1.1679 -0.0822259 5.52386e-22)
(1.16853 -0.087562 7.79474e-21)
(1.16926 -0.0931567 2.23815e-20)
(1.17014 -0.0990187 1.17219e-20)
(1.17119 -0.105145 -1.35593e-20)
(1.17247 -0.111543 1.13044e-21)
(1.17401 -0.118204 -2.5298e-21)
(1.17587 -0.125125 -1.28401e-20)
(1.17811 -0.132284 1.85374e-20)
(1.18079 -0.139671 -1.9927e-21)
(1.18398 -0.147214 -9.57166e-21)
(1.18776 -0.154948 1.15989e-20)
(1.1922 -0.162631 0)
(1.19736 -0.170517 0)
(1.20333 -0.177868 0)
(1.2101 -0.185682 2.50872e-20)
(1.21786 -0.19185 1.77481e-20)
(1.22616 -0.199513 -2.25161e-20)
(1.23593 -0.203122 -1.90454e-20)
(1.24512 -0.210963 2.47914e-20)
(1.25732 -0.210034 2.83781e-20)
(1.26555 -0.219173 3.32206e-20)
(1.28151 -0.211387 -3.82689e-20)
(1.28419 -0.223507 1.27582e-21)
(1.30982 -0.207482 -4.59444e-20)
(1.3014 -0.223698 -5.13649e-20)
(1.38203 -0.224287 -3.30933e-21)
(0.89245 -0.165259 5.32609e-21)
(1.15171 -4.2012e-05 7.55031e-21)
(1.15189 -0.000117998 -1.61415e-22)
(1.15203 -0.000205498 4.14214e-21)
(1.15216 -0.000294914 1.96276e-20)
(1.15226 -0.000385462 2.44081e-20)
(1.15236 -0.000478773 -1.18406e-21)
(1.15245 -0.000574812 0)
(1.15254 -0.000673762 0)
(1.15262 -0.000775996 0)
(1.15269 -0.000881867 -2.30766e-21)
(1.15277 -0.000991737 2.44635e-21)
(1.15284 -0.00110602 2.79706e-21)
(1.1529 -0.00122513 -2.96502e-21)
(1.15297 -0.00134955 -1.26856e-20)
(1.15304 -0.00147972 -1.58527e-20)
(1.1531 -0.00161614 -1.34288e-20)
(1.15317 -0.0017593 0)
(1.15323 -0.00190973 -2.51456e-21)
(1.1533 -0.00206795 2.66547e-21)
(1.15336 -0.00223454 -1.14188e-20)
(1.15343 -0.00241006 -1.30794e-21)
(1.1535 -0.00259514 1.39335e-20)
(1.15357 -0.00279039 0)
(1.15364 -0.0029965 -9.43468e-21)
(1.15371 -0.00321417 7.91322e-21)