/*--------------------------------*- C++ -*----------------------------------*\
  =========                 |
  \\      /  F ield         | OpenFOAM: The Open Source CFD Toolbox
   \\    /   O peration     | Website:  https://openfoam.org
    \\  /    A nd           | Version:  9
     \\/     M anipulation  |
\*---------------------------------------------------------------------------*/
FoamFile
{
    format      ascii;
    class       volScalarField;
    location    "750";
    object      gammaInt;
}
// * * * * * * * * * * * * * * * * * * * * * * * * * * * * * * * * * * * * * //

dimensions      [0 0 0 0 0 0 0];

internalField   nonuniform List<scalar> 
13617
(
0.994162
0.998351
0.999149
0.999264
0.999255
0.999174
0.999025
0.998825
0.998596
0.998354
0.998111
0.997871
0.997636
0.997406
0.997179
0.996956
0.996738
0.996525
0.996319
0.996122
0.995936
0.995766
0.995614
0.995487
0.995388
0.995322
0.995294
0.995308
0.995367
0.995472
0.995621
0.995808
0.996018
0.996226
0.996383
0.996432
0.996314
0.996
0.995528
0.994941
0.99428
0.993577
0.992856
0.992143
0.991457
0.990815
0.990232
0.989725
0.989313
0.989005
0.988785
0.988653
0.988618
0.988681
0.988829
0.989039
0.989285
0.98955
0.989828
0.990114
0.990387
0.990619
0.990761
0.990763
0.990554
0.990024
0.988986
0.987228
0.984663
0.981407
0.977557
0.973117
0.968003
0.962093
0.95558
0.949265
0.943669
0.937493
0.927627
0.912365
0.894875
0.881394
0.874295
0.869837
0.856943
0.799494
0.994166
0.998374
0.999163
0.999265
0.999251
0.999165
0.99901
0.998806
0.998574
0.998331
0.998088
0.997847
0.997611
0.997379
0.99715
0.996925
0.996703
0.996486
0.996275
0.996072
0.995879
0.995701
0.995541
0.995404
0.995295
0.995218
0.99518
0.995183
0.995232
0.995328
0.995471
0.995655
0.995868
0.996084
0.996261
0.99634
0.996267
0.995996
0.995554
0.994984
0.994327
0.993618
0.992884
0.992151
0.99144
0.990769
0.990153
0.989613
0.989171
0.988838
0.988605
0.988456
0.988375
0.988375
0.988457
0.988604
0.988792
0.988997
0.98921
0.989421
0.989609
0.989747
0.989785
0.989668
0.989334
0.988702
0.987621
0.985895
0.98338
0.980118
0.976175
0.971596
0.966343
0.960291
0.953584
0.946975
0.941246
0.935847
0.928508
0.916954
0.902
0.887777
0.87802
0.873856
0.870544
0.849271
0.994178
0.998399
0.999176
0.999266
0.999247
0.999155
0.998996
0.998788
0.998554
0.99831
0.998066
0.997825
0.997588
0.997355
0.997124
0.996896
0.996671
0.99645
0.996234
0.996025
0.995826
0.99564
0.995472
0.995325
0.995206
0.995119
0.995069
0.995061
0.995099
0.995186
0.995321
0.995501
0.995714
0.995937
0.99613
0.996238
0.996207
0.995981
0.995573
0.995025
0.994378
0.993666
0.992922
0.992171
0.991437
0.990738
0.99009
0.989516
0.989042
0.988682
0.988433
0.988283
0.988193
0.988155
0.988177
0.988257
0.988377
0.988515
0.988658
0.988791
0.98889
0.988926
0.988849
0.988603
0.988128
0.987359
0.986182
0.984441
0.98198
0.978777
0.974867
0.970304
0.965076
0.959105
0.952515
0.94603
0.940582
0.936118
0.930984
0.922971
0.911934
0.89986
0.889196
0.882609
0.88036
0.873071
0.994194
0.998424
0.999189
0.999268
0.999244
0.999147
0.998983
0.998771
0.998536
0.998292
0.998047
0.997806
0.997569
0.997334
0.997102
0.996872
0.996644
0.996419
0.996199
0.995984
0.995778
0.995585
0.995408
0.995252
0.995122
0.995023
0.994962
0.994942
0.994969
0.995045
0.995172
0.995346
0.995557
0.995786
0.995992
0.996125
0.996132
0.995955
0.995585
0.995063
0.99443
0.99372
0.992968
0.992202
0.991446
0.990719
0.990038
0.98943
0.988922
0.988532
0.988261
0.988103
0.988019
0.987972
0.987958
0.987979
0.988029
0.988093
0.988157
0.988204
0.988208
0.988133
0.987931
0.98754
0.9869
0.985954
0.984617
0.982771
0.980275
0.977075
0.973181
0.968635
0.963446
0.957565
0.951138
0.944886
0.939867
0.936321
0.932872
0.927742
0.920463
0.911185
0.901203
0.893885
0.891191
0.888152
0.994211
0.99845
0.999202
0.999271
0.999242
0.99914
0.998971
0.998757
0.99852
0.998276
0.998032
0.997791
0.997554
0.997318
0.997085
0.996853
0.996622
0.996394
0.996169
0.995949
0.995736
0.995535
0.995349
0.995184
0.995043
0.994933
0.99486
0.994828
0.994843
0.994908
0.995024
0.995191
0.995399
0.99563
0.995848
0.996002
0.996045
0.995917
0.995589
0.995097
0.994482
0.993779
0.993022
0.992243
0.991467
0.990713
0.989999
0.989355
0.988811
0.988388
0.988091
0.98792
0.987845
0.987799
0.987769
0.987752
0.987742
0.987729
0.987709
0.987661
0.987558
0.987362
0.98702
0.986467
0.985639
0.98448
0.982922
0.98088
0.978241
0.974942
0.970976
0.966374
0.961162
0.955305
0.948965
0.942927
0.938356
0.935579
0.933431
0.930533
0.925588
0.918072
0.910375
0.905478
0.903545
0.901501
0.994229
0.998474
0.999214
0.999274
0.999241
0.999135
0.998961
0.998745
0.998507
0.998263
0.99802
0.99778
0.997542
0.997307
0.997072
0.996838
0.996605
0.996374
0.996144
0.995919
0.9957
0.995492
0.995297
0.995122
0.994971
0.994849
0.994763
0.994718
0.99472
0.994773
0.994878
0.995036
0.995239
0.995471
0.995698
0.995871
0.995947
0.995866
0.995583
0.995126
0.994534
0.993841
0.993084
0.992295
0.9915
0.99072
0.989973
0.989292
0.98871
0.988252
0.987926
0.987734
0.98766
0.987622
0.987592
0.987556
0.987504
0.987425
0.987319
0.987172
0.986953
0.986624
0.986129
0.985398
0.98436
0.982955
0.981126
0.978815
0.975929
0.972412
0.968258
0.963494
0.958148
0.952193
0.945836
0.939932
0.935718
0.933519
0.932447
0.93072
0.926172
0.920401
0.917153
0.91607
0.914997
0.913229
0.994247
0.998499
0.999226
0.999278
0.999241
0.99913
0.998953
0.998735
0.998497
0.998254
0.998011
0.997772
0.997535
0.997299
0.997064
0.996829
0.996594
0.996359
0.996125
0.995895
0.99567
0.995454
0.995251
0.995066
0.994904
0.994771
0.994672
0.994614
0.994602
0.994642
0.994735
0.994883
0.995079
0.99531
0.995542
0.995733
0.995838
0.995803
0.995566
0.995148
0.994583
0.993906
0.993152
0.992356
0.991544
0.99074
0.98996
0.989241
0.98862
0.988124
0.987766
0.987549
0.987467
0.98744
0.987418
0.98738
0.987302
0.987172
0.98699
0.986745
0.986408
0.985938
0.985279
0.984356
0.98309
0.981414
0.979277
0.976633
0.973413
0.969567
0.965095
0.960037
0.954415
0.948215
0.941692
0.935789
0.931791
0.930066
0.929625
0.927497
0.922895
0.920593
0.921787
0.92237
0.921636
0.921754
0.994265
0.998523
0.999237
0.999282
0.999243
0.999127
0.998947
0.998727
0.99849
0.998247
0.998006
0.997768
0.997532
0.997296
0.99706
0.996824
0.996587
0.99635
0.996112
0.995877
0.995646
0.995423
0.995212
0.995017
0.994844
0.994698
0.994587
0.994515
0.994489
0.994515
0.994595
0.994731
0.99492
0.995147
0.995383
0.995588
0.995719
0.995727
0.995538
0.995161
0.994628
0.993971
0.993225
0.992425
0.9916
0.990772
0.989961
0.989203
0.988542
0.988006
0.987611
0.987366
0.987267
0.98725
0.987243
0.98721
0.987122
0.98696
0.986717
0.986385
0.985935
0.985324
0.984496
0.983372
0.981864
0.979901
0.977426
0.974402
0.97077
0.96649
0.961572
0.956066
0.950014
0.943406
0.936526
0.930456
0.926534
0.925124
0.924392
0.921175
0.918182
0.919369
0.92107
0.920813
0.922334
0.927612
0.994283
0.998547
0.999249
0.999288
0.999245
0.999126
0.998943
0.998722
0.998485
0.998244
0.998004
0.997767
0.997532
0.997297
0.997061
0.996824
0.996586
0.996346
0.996105
0.995865
0.995629
0.995399
0.995179
0.994975
0.994791
0.994633
0.994508
0.994422
0.994382
0.994393
0.994459
0.994583
0.994761
0.994983
0.995221
0.995437
0.995591
0.995639
0.995498
0.995166
0.994668
0.994035
0.993302
0.992502
0.991667
0.990817
0.989974
0.989177
0.988474
0.987897
0.987464
0.987184
0.987063
0.987052
0.987056
0.987036
0.986953
0.986777
0.986492
0.986088
0.985537
0.984794
0.9838
0.982473
0.98072
0.978458
0.975627
0.972188
0.96808
0.963273
0.957783
0.951677
0.945026
0.937826
0.9304
0.923959
0.919952
0.918433
0.91666
0.91355
0.912979
0.913612
0.911713
0.912126
0.920533
0.934065
0.9943
0.998571
0.99926
0.999294
0.999249
0.999126
0.99894
0.998719
0.998483
0.998243
0.998006
0.99777
0.997536
0.997302
0.997067
0.996829
0.996589
0.996347
0.996103
0.995859
0.995617
0.995381
0.995153
0.994939
0.994744
0.994574
0.994436
0.994335
0.99428
0.994276
0.994327
0.994437
0.994605
0.994819
0.995058
0.995282
0.995456
0.99554
0.995445
0.995159
0.994701
0.994097
0.99338
0.992585
0.991742
0.990873
0.989999
0.989163
0.988418
0.987798
0.987322
0.987006
0.986855
0.986842
0.986854
0.98685
0.986785
0.986611
0.986303
0.985849
0.985214
0.984354
0.983206
0.981684
0.979689
0.977131
0.973937
0.970055
0.96542
0.959996
0.953818
0.946975
0.939545
0.931527
0.92334
0.916348
0.912023
0.909832
0.907295
0.905756
0.90499
0.900033
0.895082
0.901657
0.920416
0.941122
0.994317
0.998594
0.999271
0.9993
0.999253
0.999128
0.99894
0.998718
0.998483
0.998246
0.99801
0.997777
0.997545
0.997311
0.997076
0.996839
0.996598
0.996354
0.996107
0.995859
0.995612
0.995369
0.995133
0.99491
0.994704
0.994522
0.99437
0.994256
0.994185
0.994165
0.9942
0.994296
0.994451
0.994657
0.994892
0.995123
0.995314
0.99543
0.995381
0.995142
0.994725
0.994154
0.993459
0.992673
0.991825
0.990939
0.990037
0.989162
0.988373
0.987707
0.987187
0.986829
0.986643
0.986616
0.986635
0.986653
0.986609
0.986449
0.986139
0.985656
0.984961
0.984004
0.982721
0.98102
0.978798
0.975958
0.972405
0.968062
0.962854
0.956734
0.949757
0.942027
0.93362
0.924542
0.915369
0.907653
0.90267
0.899575
0.897249
0.896295
0.891164
0.881091
0.879794
0.896647
0.921808
0.941413
0.994333
0.998616
0.999282
0.999308
0.999259
0.99913
0.998941
0.998719
0.998486
0.998251
0.998018
0.997787
0.997556
0.997324
0.99709
0.996853
0.996611
0.996365
0.996116
0.995865
0.995613
0.995363
0.99512
0.994888
0.994672
0.994477
0.994312
0.994183
0.994096
0.99406
0.994079
0.994159
0.9943
0.994496
0.994727
0.994961
0.995167
0.995312
0.995304
0.995112
0.99474
0.994206
0.993537
0.992763
0.991916
0.991015
0.990085
0.989171
0.988338
0.987625
0.987059
0.986655
0.986428
0.986375
0.986399
0.986437
0.986415
0.986281
0.985987
0.985496
0.984767
0.98374
0.982348
0.980493
0.978068
0.974965
0.971062
0.966252
0.960426
0.953541
0.945645
0.936852
0.927232
0.916839
0.906402
0.897642
0.891684
0.888025
0.885998
0.882395
0.872213
0.864649
0.874885
0.899731
0.920339
0.927605
0.994348
0.998639
0.999293
0.999317
0.999265
0.999135
0.998944
0.998723
0.998491
0.998259
0.998028
0.9978
0.997571
0.997341
0.997108
0.996871
0.996629
0.996382
0.996131
0.995876
0.995619
0.995364
0.995114
0.994872
0.994646
0.99444
0.994261
0.994117
0.994014
0.993962
0.993964
0.994028
0.994154
0.994338
0.994563
0.994798
0.995016
0.995185
0.995216
0.99507
0.994744
0.99425
0.993611
0.992855
0.992011
0.9911
0.990143
0.989191
0.988312
0.987551
0.986935
0.986482
0.986209
0.986121
0.986148
0.986194
0.986197
0.986101
0.985832
0.985356
0.984618
0.983551
0.98208
0.980104
0.977509
0.974169
0.969928
0.964644
0.958172
0.950447
0.941485
0.931416
0.920279
0.908225
0.896116
0.885979
0.878737
0.874715
0.87156
0.862858
0.852545
0.856507
0.87967
0.903603
0.910051
0.900531
0.994362
0.99866
0.999304
0.999326
0.999273
0.99914
0.998949
0.998728
0.998499
0.998269
0.998042
0.997816
0.99759
0.997361
0.997129
0.996893
0.996651
0.996403
0.99615
0.995892
0.995632
0.995371
0.995113
0.994864
0.994627
0.994409
0.994217
0.994058
0.99394
0.99387
0.993855
0.993902
0.994012
0.994183
0.9944
0.994634
0.994861
0.99505
0.995116
0.995015
0.994737
0.994286
0.99368
0.992945
0.992109
0.99119
0.990209
0.98922
0.988295
0.987484
0.986815
0.98631
0.985986
0.985853
0.985872
0.985922
0.985957
0.985895
0.985665
0.985222
0.984498
0.983421
0.981905
0.979845
0.977119
0.973569
0.969003
0.963245
0.956105
0.947469
0.937334
0.925778
0.912791
0.898655
0.884351
0.872085
0.86336
0.858398
0.852209
0.839801
0.835247
0.854241
0.884161
0.897239
0.887931
0.868124
0.994376
0.998681
0.999315
0.999336
0.999282
0.999147
0.998955
0.998736
0.998509
0.998282
0.998058
0.997835
0.997611
0.997385
0.997155
0.996919
0.996677
0.996429
0.996174
0.995914
0.99565
0.995384
0.99512
0.994862
0.994615
0.994386
0.994181
0.994007
0.993873
0.993786
0.993753
0.993782
0.993876
0.994032
0.994239
0.994471
0.994703
0.99491
0.995007
0.994948
0.994717
0.99431
0.993742
0.993033
0.992209
0.991286
0.990283
0.989257
0.988286
0.987423
0.986699
0.986137
0.985756
0.985571
0.985562
0.98562
0.985681
0.98565
0.985475
0.985075
0.984394
0.983333
0.981808
0.979703
0.976884
0.973154
0.96828
0.962053
0.954244
0.944656
0.933236
0.919992
0.904831
0.888031
0.870737
0.855522
0.844776
0.837584
0.827717
0.816274
0.821825
0.852143
0.876106
0.872611
0.855029
0.837985
0.994388
0.9987
0.999326
0.999346
0.999292
0.999155
0.998963
0.998745
0.998521
0.998297
0.998076
0.997856
0.997635
0.997411
0.997183
0.996949
0.996708
0.996459
0.996203
0.995941
0.995673
0.995402
0.995132
0.994866
0.99461
0.99437
0.994151
0.993963
0.993813
0.993709
0.993659
0.993669
0.993745
0.993886
0.994081
0.994308
0.994544
0.994764
0.994888
0.994869
0.994683
0.994323
0.993795
0.993117
0.992309
0.991384
0.990363
0.9893
0.988283
0.987367
0.986586
0.985963
0.98552
0.985274
0.985221
0.985289
0.985355
0.985372
0.985245
0.984905
0.984279
0.983266
0.981765
0.979658
0.976778
0.972899
0.967755
0.961088
0.952631
0.942139
0.929428
0.914395
0.896821
0.876866
0.855796
0.836582
0.822342
0.810876
0.798834
0.794384
0.812804
0.842867
0.847637
0.831144
0.816136
0.810788
0.9944
0.998719
0.999337
0.999358
0.999302
0.999165
0.998972
0.998756
0.998535
0.998315
0.998097
0.99788
0.997662
0.997441
0.997215
0.996982
0.996742
0.996493
0.996237
0.995972
0.995701
0.995426
0.99515
0.994877
0.994612
0.994361
0.99413
0.993927
0.993761
0.99364
0.993571
0.993563
0.993621
0.993745
0.993927
0.994147
0.994385
0.994614
0.99476
0.994777
0.994636
0.994323
0.993838
0.993193
0.992405
0.991484
0.990446
0.989349
0.988285
0.987314
0.986473
0.985785
0.985274
0.98496
0.984849
0.984899
0.98498
0.985038
0.984961
0.984692
0.984139
0.983194
0.981752
0.979679
0.976775
0.972784
0.967425
0.960403
0.951401
0.940105
0.926239
0.909541
0.88956
0.866168
0.840725
0.816242
0.796272
0.778118
0.765625
0.773905
0.804063
0.819936
0.804124
0.785519
0.778863
0.785412
0.99441
0.998737
0.999347
0.999369
0.999314
0.999175
0.998983
0.998769
0.99855
0.998334
0.99812
0.997907
0.997692
0.997473
0.997249
0.997018
0.996779
0.996531
0.996274
0.996008
0.995735
0.995456
0.995174
0.994894
0.99462
0.994358
0.994115
0.993898
0.993717
0.993578
0.993491
0.993464
0.993503
0.99361
0.993778
0.993989
0.994226
0.994461
0.994624
0.994674
0.994575
0.994308
0.993868
0.99326
0.992496
0.991583
0.990531
0.989402
0.98829
0.987263
0.986359
0.985603
0.985019
0.984629
0.984446
0.984451
0.984556
0.984627
0.984615
0.98441
0.983951
0.983094
0.981739
0.979731
0.976841
0.9728
0.967316
0.960071
0.950707
0.938818
0.924006
0.905832
0.883648
0.85702
0.827155
0.796781
0.768173
0.740464
0.727392
0.750683
0.787148
0.78495
0.76113
0.749281
0.750744
0.764291
0.994419
0.998754
0.999358
0.999382
0.999326
0.999187
0.998995
0.998783
0.998568
0.998355
0.998145
0.997935
0.997723
0.997507
0.997286
0.997057
0.996819
0.996572
0.996315
0.996048
0.995772
0.99549
0.995204
0.994917
0.994635
0.994363
0.994108
0.993877
0.99368
0.993524
0.993419
0.993373
0.993392
0.993481
0.993633
0.993834
0.994068
0.994304
0.994482
0.994559
0.9945
0.994279
0.993884
0.993316
0.99258
0.991678
0.990617
0.989456
0.988297
0.987213
0.986243
0.985414
0.984751
0.984277
0.984011
0.983948
0.984036
0.984138
0.984173
0.984055
0.983678
0.982934
0.981689
0.979776
0.976951
0.972948
0.967466
0.960164
0.950608
0.938302
0.922743
0.903324
0.879157
0.849497
0.815397
0.779267
0.740807
0.700393
0.683796
0.718949
0.75708
0.74789
0.730403
0.727729
0.73413
0.749647
0.994426
0.99877
0.999369
0.999395
0.999339
0.999199
0.999008
0.998799
0.998587
0.998378
0.998171
0.997965
0.997756
0.997544
0.997325
0.997098
0.996862
0.996616
0.996359
0.996092
0.995814
0.995529
0.995238
0.994945
0.994656
0.994374
0.994107
0.993863
0.993651
0.993478
0.993354
0.993289
0.993289
0.993358
0.993494
0.993683
0.993911
0.994145
0.994333
0.994435
0.994411
0.994234
0.993885
0.993359
0.992654
0.991767
0.9907
0.989511
0.988305
0.987162
0.986123
0.985217
0.98447
0.983904
0.983542
0.983392
0.983424
0.98355
0.983618
0.98358
0.983304
0.982669
0.981562
0.979777
0.977077
0.973219
0.96787
0.960634
0.951057
0.938543
0.922464
0.902067
0.876204
0.843756
0.805593
0.763745
0.714997
0.662025
0.635277
0.675035
0.716167
0.717156
0.715584
0.721037
0.728392
0.741889
0.994432
0.998785
0.99938
0.999408
0.999353
0.999212
0.999022
0.998816
0.998607
0.998402
0.998199
0.997996
0.997791
0.997582
0.997366
0.997142
0.996908
0.996663
0.996407
0.996139
0.99586
0.995572
0.995277
0.994979
0.994682
0.994391
0.994114
0.993856
0.993629
0.99344
0.993298
0.993213
0.993192
0.993242
0.993361
0.993536
0.993756
0.993984
0.994178
0.9943
0.994309
0.994174
0.99387
0.993386
0.992716
0.991848
0.990778
0.989563
0.988311
0.987107
0.985997
0.98501
0.984172
0.983507
0.983039
0.982783
0.982727
0.982817
0.982949
0.982945
0.982776
0.982271
0.981297
0.979689
0.97719
0.973548
0.968443
0.96141
0.951968
0.939474
0.923145
0.902078
0.874866
0.839986
0.798009
0.750521
0.691049
0.627143
0.585594
0.621159
0.672489
0.695391
0.712157
0.72635
0.73328
0.740857
0.994436
0.998799
0.99939
0.999422
0.999367
0.999226
0.999037
0.998833
0.998628
0.998427
0.998228
0.998029
0.997828
0.997622
0.997409
0.997187
0.996955
0.996712
0.996457
0.996189
0.995909
0.995619
0.995321
0.995018
0.994714
0.994415
0.994126
0.993857
0.993614
0.993409
0.993249
0.993144
0.993104
0.993134
0.993233
0.993394
0.993601
0.993821
0.994019
0.994156
0.994193
0.994097
0.993837
0.993396
0.992763
0.991918
0.99085
0.989612
0.988314
0.987049
0.985865
0.984792
0.983857
0.983085
0.9825
0.982122
0.981949
0.981955
0.982068
0.98215
0.98204
0.981673
0.980867
0.979443
0.97721
0.97386
0.969064
0.962379
0.953248
0.940985
0.924706
0.903329
0.875186
0.838325
0.792922
0.740059
0.669643
0.595878
0.539156
0.563226
0.633956
0.682411
0.717147
0.739202
0.745676
0.74781
0.994438
0.998811
0.9994
0.999436
0.999382
0.999241
0.999053
0.998852
0.99865
0.998453
0.998258
0.998063
0.997865
0.997662
0.997453
0.997234
0.997004
0.996763
0.996509
0.996242
0.995962
0.99567
0.995369
0.995061
0.994751
0.994443
0.994145
0.993863
0.993607
0.993385
0.993207
0.993083
0.993023
0.993032
0.993112
0.993257
0.993449
0.993658
0.993855
0.994003
0.994065
0.994004
0.993785
0.993388
0.992794
0.991975
0.990912
0.989654
0.988313
0.986984
0.985724
0.984561
0.983524
0.982635
0.981922
0.981407
0.981096
0.980976
0.981005
0.981091
0.981088
0.980806
0.980181
0.978997
0.977013
0.974024
0.969627
0.96339
0.954732
0.942931
0.927009
0.905707
0.877133
0.838871
0.790583
0.732866
0.651595
0.568882
0.497577
0.506752
0.603079
0.673517
0.722813
0.754866
0.762603
0.758681
0.994439
0.998822
0.99941
0.99945
0.999397
0.999256
0.99907
0.998871
0.998673
0.998479
0.998288
0.998097
0.997903
0.997704
0.997497
0.997282
0.997055
0.996816
0.996563
0.996297
0.996017
0.995724
0.99542
0.995108
0.994792
0.994477
0.994169
0.993876
0.993606
0.993369
0.993173
0.99303
0.992949
0.992937
0.992997
0.993125
0.993298
0.993494
0.993687
0.993843
0.993925
0.993895
0.993715
0.993361
0.992806
0.992015
0.990963
0.989688
0.988304
0.986913
0.985573
0.984316
0.98317
0.982157
0.981306
0.980639
0.980168
0.97989
0.97978
0.979781
0.979795
0.979658
0.979144
0.978193
0.976527
0.973885
0.969947
0.96426
0.956233
0.945058
0.929811
0.909021
0.880542
0.841579
0.791117
0.729346
0.637791
0.546989
0.462355
0.454872
0.575456
0.669499
0.732818
0.768964
0.776904
0.770587
0.994438
0.998831
0.99942
0.999464
0.999412
0.999272
0.999087
0.998891
0.998696
0.998506
0.998319
0.998132
0.997941
0.997746
0.997543
0.99733
0.997106
0.99687
0.996619
0.996354
0.996074
0.99578
0.995474
0.995159
0.994838
0.994516
0.994199
0.993895
0.993612
0.993359
0.993146
0.992984
0.992882
0.992849
0.992889
0.992996
0.993148
0.99333
0.993516
0.993676
0.993773
0.99377
0.993626
0.993312
0.992797
0.992038
0.990999
0.989712
0.988287
0.986832
0.985411
0.984056
0.982795
0.981651
0.98065
0.979818
0.979167
0.978702
0.978409
0.978253
0.97817
0.978049
0.977739
0.976918
0.97554
0.973291
0.96985
0.964723
0.957459
0.947148
0.932791
0.912924
0.88514
0.846211
0.794484
0.729725
0.628961
0.531052
0.434766
0.411877
0.547026
0.657875
0.733763
0.779962
0.785701
0.767222
0.994434
0.998839
0.999429
0.999479
0.999427
0.999287
0.999104
0.998911
0.99872
0.998534
0.99835
0.998166
0.99798
0.997788
0.997588
0.997379
0.997158
0.996924
0.996676
0.996412
0.996133
0.995838
0.995531
0.995213
0.994888
0.994559
0.994234
0.993919
0.993623
0.993356
0.993126
0.992945
0.992823
0.992769
0.992787
0.99287
0.993002
0.993166
0.993342
0.993502
0.99361
0.99363
0.993518
0.993242
0.992765
0.99204
0.991018
0.989722
0.988259
0.986742
0.985237
0.98378
0.982398
0.981114
0.979955
0.978943
0.978095
0.977417
0.976902
0.976531
0.976259
0.976016
0.975698
0.975095
0.973933
0.972011
0.969066
0.964638
0.958103
0.948794
0.93558
0.916986
0.890474
0.85243
0.800427
0.733961
0.625523
0.521604
0.415128
0.384249
0.513762
0.647967
0.736088
0.777518
0.774675
0.743568
0.994429
0.998846
0.999438
0.999493
0.999442
0.999303
0.999121
0.998931
0.998743
0.998561
0.998381
0.998201
0.998018
0.99783
0.997633
0.997427
0.99721
0.996979
0.996733
0.996471
0.996193
0.995899
0.99559
0.99527
0.99494
0.994606
0.994273
0.993948
0.993641
0.993359
0.993113
0.992913
0.992771
0.992695
0.992691
0.992749
0.992857
0.993003
0.993166
0.993322
0.993437
0.993475
0.993391
0.993149
0.992711
0.992019
0.991018
0.989718
0.98822
0.98664
0.98505
0.983488
0.98198
0.980549
0.97922
0.978017
0.976953
0.976038
0.975268
0.974632
0.9741
0.973625
0.973136
0.972497
0.971525
0.969954
0.967358
0.963558
0.95786
0.949617
0.937635
0.920642
0.895973
0.859631
0.808479
0.741652
0.627353
0.518663
0.402629
0.370773
0.477309
0.632269
0.732079
0.766658
0.736429
0.674138
0.994421
0.998851
0.999446
0.999506
0.999457
0.999319
0.999138
0.998951
0.998766
0.998588
0.998411
0.998235
0.998056
0.997871
0.997678
0.997476
0.997261
0.997033
0.99679
0.99653
0.996253
0.99596
0.995651
0.995329
0.994996
0.994657
0.994316
0.993982
0.993663
0.993368
0.993106
0.992888
0.992725
0.992628
0.992598
0.99263
0.992715
0.99284
0.992989
0.993138
0.993255
0.993306
0.993245
0.993035
0.992632
0.991974
0.990997
0.989696
0.988167
0.986526
0.98485
0.98318
0.981541
0.979956
0.978448
0.97704
0.975744
0.97457
0.973516
0.972574
0.971721
0.970925
0.970136
0.969265
0.968191
0.966734
0.96461
0.961241
0.95626
0.949082
0.938622
0.92326
0.900846
0.867054
0.817851
0.752031
0.633802
0.521528
0.395555
0.364864
0.440665
0.623399
0.721431
0.719096
0.668986
0.635825
0.99441
0.998854
0.999454
0.99952
0.999472
0.999334
0.999155
0.99897
0.998789
0.998614
0.998441
0.998268
0.998092
0.997911
0.997722
0.997523
0.997312
0.997087
0.996847
0.996589
0.996314
0.996022
0.995713
0.995389
0.995054
0.99471
0.994363
0.99402
0.99369
0.993381
0.993104
0.992868
0.992686
0.992566
0.99251
0.992515
0.992574
0.992678
0.992809
0.992948
0.993064
0.993123
0.993082
0.992899
0.992528
0.991904
0.990952
0.989656
0.988099
0.986398
0.984637
0.982856
0.981082
0.979336
0.97764
0.976013
0.974472
0.97302
0.971656
0.970372
0.969149
0.967961
0.96677
0.965515
0.964113
0.962444
0.960318
0.957364
0.953138
0.946753
0.937704
0.924302
0.904314
0.873698
0.827592
0.764079
0.643813
0.528942
0.391837
0.362267
0.41139
0.642778
0.747937
0.675809
0.669128
0.64284
0.994397
0.998856
0.999462
0.999533
0.999487
0.999349
0.999171
0.998989
0.998811
0.998639
0.99847
0.9983
0.998128
0.99795
0.997765
0.997569
0.997362
0.99714
0.996903
0.996648
0.996375
0.996084
0.995775
0.995451
0.995113
0.994765
0.994412
0.994061
0.993721
0.9934
0.993107
0.992854
0.992652
0.992507
0.992425
0.992403
0.992436
0.992516
0.992629
0.992754
0.992865
0.992928
0.992901
0.99274
0.992399
0.991808
0.990883
0.989594
0.988014
0.986257
0.984409
0.982516
0.980602
0.978689
0.976797
0.974943
0.97314
0.971394
0.969697
0.968041
0.966405
0.964768
0.963094
0.961338
0.959435
0.957303
0.954815
0.951731
0.94777
0.942384
0.934451
0.922838
0.905601
0.878602
0.836569
0.776537
0.656184
0.539494
0.389491
0.360985
0.398234
0.655868
0.674565
0.702189
0.692304
0.640913
0.994382
0.998856
0.999468
0.999546
0.999501
0.999363
0.999187
0.999007
0.998832
0.998663
0.998497
0.998331
0.998162
0.997988
0.997806
0.997614
0.99741
0.997191
0.996957
0.996705
0.996435
0.996146
0.995838
0.995513
0.995173
0.994822
0.994464
0.994106
0.993756
0.993422
0.993116
0.992846
0.992621
0.992452
0.992343
0.992294
0.9923
0.992355
0.992447
0.992556
0.992658
0.992721
0.992703
0.992561
0.992245
0.991684
0.990787
0.989509
0.98791
0.9861
0.984167
0.98216
0.980104
0.978019
0.975923
0.973833
0.971758
0.969699
0.967651
0.965596
0.963514
0.961381
0.95916
0.95681
0.954276
0.951493
0.94837
0.944752
0.940463
0.935191
0.928269
0.918567
0.90374
0.880852
0.843603
0.788339
0.669919
0.551925
0.387121
0.360043
0.399228
0.71452
0.699429
0.725935
0.695644
0.618863
0.994363
0.998855
0.999474
0.999558
0.999514
0.999377
0.999202
0.999025
0.998852
0.998686
0.998523
0.99836
0.998194
0.998023
0.997845
0.997656
0.997456
0.997241
0.99701
0.996761
0.996494
0.996206
0.9959
0.995575
0.995234
0.99488
0.994517
0.994152
0.993793
0.993449
0.993128
0.992839
0.992593
0.9924
0.992264
0.992187
0.992166
0.992195
0.992265
0.992355
0.992445
0.992504
0.99249
0.992361
0.992067
0.991533
0.990663
0.9894
0.987786
0.985926
0.98391
0.981789
0.979589
0.97733
0.975024
0.972689
0.970332
0.967947
0.965529
0.963055
0.960499
0.957833
0.955015
0.952
0.948735
0.945163
0.941207
0.93676
0.931712
0.925904
0.918972
0.910301
0.898582
0.879321
0.847845
0.798188
0.683989
0.565391
0.384092
0.359356
0.408075
0.704854
0.709956
0.721606
0.675581
0.599424
0.994342
0.998852
0.999478
0.999569
0.999527
0.99939
0.999216
0.999041
0.998871
0.998707
0.998547
0.998387
0.998224
0.998057
0.997881
0.997696
0.997499
0.997288
0.997061
0.996816
0.996551
0.996266
0.995961
0.995637
0.995295
0.994939
0.994572
0.994201
0.993833
0.993476
0.99314
0.992834
0.992567
0.99235
0.992187
0.992084
0.992034
0.992036
0.992081
0.992151
0.992226
0.992276
0.992262
0.992142
0.991865
0.991356
0.990513
0.989266
0.987643
0.985737
0.983642
0.981408
0.979062
0.976624
0.974106
0.971519
0.968871
0.966148
0.963346
0.960436
0.957385
0.954156
0.950701
0.946969
0.942903
0.93844
0.933508
0.928026
0.921918
0.915116
0.907452
0.898658
0.888235
0.873896
0.847835
0.805613
0.698133
0.579651
0.380875
0.358599
0.417722
0.693906
0.690549
0.699506
0.669769
0.609493
0.994317
0.998847
0.999482
0.999579
0.999538
0.999402
0.999229
0.999055
0.998888
0.998727
0.998569
0.998412
0.998252
0.998087
0.997915
0.997734
0.99754
0.997333
0.997109
0.996867
0.996606
0.996323
0.99602
0.995697
0.995355
0.994997
0.994627
0.994249
0.993872
0.993504
0.993154
0.99283
0.992543
0.992302
0.992114
0.991982
0.991904
0.991878
0.991898
0.991945
0.992001
0.992039
0.992022
0.991906
0.991641
0.991153
0.990335
0.989107
0.987479
0.985534
0.983362
0.981017
0.978527
0.975909
0.973176
0.970331
0.967384
0.964317
0.96112
0.95776
0.954196
0.950381
0.946261
0.941775
0.936857
0.931436
0.925437
0.918783
0.911416
0.903313
0.894432
0.884721
0.874214
0.86223
0.843263
0.808668
0.711486
0.594429
0.378719
0.357608
0.410473
0.654171
0.646733
0.669715
0.670897
0.633153
0.994289
0.998841
0.999485
0.999589
0.999549
0.999413
0.999241
0.999068
0.998903
0.998744
0.998589
0.998434
0.998277
0.998115
0.997946
0.997768
0.997578
0.997374
0.997154
0.996916
0.996658
0.996378
0.996078
0.995756
0.995414
0.995054
0.99468
0.994296
0.993911
0.993532
0.993168
0.992828
0.99252
0.992256
0.992042
0.991882
0.991775
0.991721
0.991713
0.991736
0.991771
0.991795
0.991769
0.991653
0.991396
0.990925
0.990131
0.988923
0.987294
0.985314
0.983071
0.98062
0.977988
0.975189
0.972239
0.969134
0.965884
0.962468
0.958867
0.955047
0.950956
0.94654
0.941737
0.936473
0.930673
0.924256
0.917135
0.90923
0.900485
0.8909
0.8805
0.869367
0.85786
0.846345
0.831791
0.806378
0.723148
0.61006
0.379146
0.356514
0.394186
0.601118
0.593825
0.641414
0.690906
0.674229
0.994258
0.998833
0.999488
0.999598
0.999559
0.999423
0.999251
0.99908
0.998916
0.998759
0.998606
0.998454
0.998299
0.99814
0.997974
0.997799
0.997612
0.997412
0.997196
0.996961
0.996707
0.996431
0.996132
0.995812
0.99547
0.995108
0.99473
0.994341
0.993948
0.993559
0.993182
0.992825
0.992498
0.992211
0.991972
0.991784
0.991648
0.991564
0.991529
0.991525
0.991537
0.991543
0.991506
0.991386
0.991132
0.990673
0.989901
0.988714
0.987088
0.98508
0.982772
0.980218
0.977447
0.974469
0.971301
0.967939
0.964384
0.960614
0.956605
0.952316
0.947691
0.942666
0.937169
0.931116
0.92442
0.916988
0.908726
0.899538
0.889367
0.878214
0.866142
0.853304
0.840241
0.827958
0.815158
0.797602
0.731563
0.625917
0.382599
0.355559
0.386999
0.556659
0.558312
0.601637
0.662243
0.994223
0.998824
0.99949
0.999606
0.999568
0.999431
0.99926
0.999089
0.998927
0.998772
0.99862
0.99847
0.998318
0.998161
0.997998
0.997826
0.997643
0.997446
0.997234
0.997003
0.996752
0.996479
0.996184
0.995864
0.995522
0.995159
0.994778
0.994384
0.993984
0.993585
0.993195
0.992823
0.992477
0.992168
0.991903
0.991687
0.991522
0.991408
0.991343
0.991312
0.9913
0.991285
0.991233
0.991105
0.990851
0.990401
0.989647
0.988481
0.986862
0.984832
0.982464
0.979813
0.976907
0.973756
0.970374
0.966755
0.962895
0.95877
0.954351
0.949591
0.944428
0.93879
0.932597
0.925754
0.918163
0.909721
0.900319
0.889857
0.878263
0.865534
0.851747
0.837093
0.822191
0.808403
0.795603
0.781936
0.735165
0.994184
0.998812
0.999491
0.999613
0.999575
0.999438
0.999267
0.999097
0.998935
0.998782
0.998632
0.998483
0.998333
0.998179
0.998018
0.997849
0.997669
0.997476
0.997268
0.997041
0.996793
0.996524
0.99623
0.995912
0.99557
0.995206
0.994822
0.994423
0.994017
0.993609
0.993207
0.992819
0.992455
0.992125
0.991836
0.991591
0.991397
0.991253
0.991157
0.991097
0.991059
0.991021
0.990952
0.990812
0.990554
0.990108
0.98937
0.988226
0.986617
0.984569
0.982149
0.979408
0.976372
0.973058
0.969466
0.965592
0.961429
0.95695
0.952121
0.946891
0.941192
0.934945
0.92806
0.920436
0.911964
0.902529
0.892015
0.880312
0.867339
0.853083
0.837628
0.821169
0.80435
0.788691
0.774824
0.762403
0.733772
0.994141
0.998799
0.999493
0.999619
0.999581
0.999443
0.999271
0.999102
0.998941
0.998789
0.99864
0.998493
0.998344
0.998192
0.998034
0.997868
0.997691
0.997502
0.997297
0.997074
0.99683
0.996564
0.996272
0.995955
0.995614
0.995249
0.994863
0.99446
0.994047
0.99363
0.993217
0.992815
0.992434
0.992083
0.991768
0.991496
0.991273
0.991098
0.990971
0.990881
0.990815
0.990752
0.990663
0.990508
0.990243
0.989799
0.989074
0.987949
0.986353
0.984295