/*--------------------------------*- C++ -*----------------------------------*\
  =========                 |
  \\      /  F ield         | OpenFOAM: The Open Source CFD Toolbox
   \\    /   O peration     | Website:  https://openfoam.org
    \\  /    A nd           | Version:  9
     \\/     M anipulation  |
\*---------------------------------------------------------------------------*/
FoamFile
{
    format      ascii;
    class       volScalarField;
    location    "750";
    object      k;
}
// * * * * * * * * * * * * * * * * * * * * * * * * * * * * * * * * * * * * * //

dimensions      [0 2 -2 0 0 0 0];

internalField   nonuniform List<scalar> 
13617
(
2.76024e-05
3.39842e-05
3.51487e-05
3.63428e-05
3.75614e-05
3.87995e-05
4.00576e-05
4.13373e-05
4.26327e-05
4.39382e-05
4.52582e-05
4.65905e-05
4.7931e-05
4.92805e-05
5.06357e-05
5.19938e-05
5.33576e-05
5.47222e-05
5.60844e-05
5.74426e-05
5.8796e-05
6.01419e-05
6.14791e-05
6.28058e-05
6.41198e-05
6.54181e-05
6.67014e-05
6.79684e-05
6.9217e-05
7.04461e-05
7.16555e-05
7.28432e-05
7.4007e-05
7.5149e-05
7.62689e-05
7.73655e-05
7.84375e-05
7.94843e-05
8.05106e-05
8.1513e-05
8.2492e-05
8.34508e-05
8.43868e-05
8.53006e-05
8.61964e-05
8.70714e-05
8.79286e-05
8.87704e-05
8.95931e-05
9.03983e-05
9.11846e-05
9.19536e-05
9.27073e-05
9.34416e-05
9.41597e-05
9.48701e-05
9.55681e-05
9.62531e-05
9.69298e-05
9.75979e-05
9.82636e-05
9.89262e-05
9.95836e-05
0.000100243
0.000100909
0.000101583
0.000102265
0.000102952
0.00010365
0.000104361
0.000105083
0.000105825
0.000106603
0.000107446
0.000108353
0.000109366
0.000110611
0.000111938
0.000114537
0.000116747
0.000117343
0.000120568
0.000126665
0.000132162
0.000134544
0.00013254
3.10454e-05
3.71713e-05
3.83473e-05
3.95434e-05
4.07577e-05
4.19865e-05
4.32284e-05
4.44782e-05
4.5736e-05
4.70034e-05
4.82755e-05
4.9551e-05
5.08285e-05
5.2106e-05
5.33819e-05
5.46516e-05
5.59175e-05
5.71787e-05
5.84308e-05
5.96714e-05
6.09024e-05
6.2119e-05
6.33207e-05
6.45072e-05
6.56749e-05
6.68259e-05
6.79565e-05
6.90677e-05
7.01588e-05
7.12263e-05
7.22723e-05
7.32973e-05
7.42987e-05
7.52757e-05
7.62303e-05
7.71642e-05
7.80759e-05
7.89659e-05
7.98338e-05
8.06824e-05
8.1512e-05
8.23226e-05
8.31134e-05
8.38875e-05
8.46496e-05
8.53943e-05
8.61255e-05
8.68464e-05
8.75546e-05
8.82514e-05
8.89371e-05
8.96102e-05
9.02713e-05
9.09258e-05
9.15717e-05
9.2211e-05
9.28454e-05
9.34766e-05
9.41071e-05
9.47371e-05
9.53671e-05
9.60016e-05
9.66439e-05
9.72953e-05
9.79581e-05
9.86315e-05
9.93205e-05
0.000100026
0.000100748
0.000101488
0.000102247
0.000103028
0.000103854
0.00010476
0.00010572
0.000106783
0.000108091
0.000109565
0.000113668
0.000115198
0.000115351
0.000119292
0.000126279
0.000132758
0.000137494
0.000136723
3.69443e-05
4.16868e-05
4.28167e-05
4.39584e-05
4.51106e-05
4.62711e-05
4.7435e-05
4.86039e-05
4.97739e-05
5.09386e-05
5.21056e-05
5.32659e-05
5.44188e-05
5.55674e-05
5.6709e-05
5.78402e-05
5.89589e-05
6.00652e-05
6.11591e-05
6.22385e-05
6.33017e-05
6.43486e-05
6.53763e-05
6.63848e-05
6.73747e-05
6.83455e-05
6.92941e-05
7.02223e-05
7.11301e-05
7.20147e-05
7.28787e-05
7.37214e-05
7.45429e-05
7.5343e-05
7.61233e-05
7.68852e-05
7.76278e-05
7.83527e-05
7.906e-05
7.9752e-05
8.04284e-05
8.10886e-05
8.17382e-05
8.23761e-05
8.3004e-05
8.36238e-05
8.42339e-05
8.48367e-05
8.54351e-05
8.60273e-05
8.66136e-05
8.71952e-05
8.77718e-05
8.83469e-05
8.89206e-05
8.94941e-05
9.00703e-05
9.0649e-05
9.12336e-05
9.1825e-05
9.24212e-05
9.30293e-05
9.36516e-05
9.42869e-05
9.49418e-05
9.56153e-05
9.63093e-05
9.70247e-05
9.77627e-05
9.85251e-05
9.93107e-05
0.000100125
0.000100988
0.000101942
0.000102962
0.000104062
0.00010536
0.000107218
0.000112037
0.000112998
0.000113316
0.000118131
0.000124349
0.000130136
0.000136523
0.000138116
4.58127e-05
4.79691e-05
4.89488e-05
4.9934e-05
5.09245e-05
5.19159e-05
5.29096e-05
5.38992e-05
5.48823e-05
5.58646e-05
5.68378e-05
5.78021e-05
5.87589e-05
5.97037e-05
6.06361e-05
6.15556e-05
6.24658e-05
6.33624e-05
6.42421e-05
6.51047e-05
6.59527e-05
6.6782e-05
6.75931e-05
6.83878e-05
6.91626e-05
6.99202e-05
7.06583e-05
7.13782e-05
7.20798e-05
7.27641e-05
7.34305e-05
7.40772e-05
7.47093e-05
7.53252e-05
7.59223e-05
7.65069e-05
7.70794e-05
7.76371e-05
7.81841e-05
7.87199e-05
7.92444e-05
7.97618e-05
8.02733e-05
8.07796e-05
8.12801e-05
8.17763e-05
8.22734e-05
8.27707e-05
8.32663e-05
8.3761e-05
8.42571e-05
8.47556e-05
8.52555e-05
8.57546e-05
8.62598e-05
8.67732e-05
8.72928e-05
8.78228e-05
8.83652e-05
8.89186e-05
8.9485e-05
9.00666e-05
9.06654e-05
9.12879e-05
9.19349e-05
9.26048e-05
9.33006e-05
9.40226e-05
9.47739e-05
9.55529e-05
9.63578e-05
9.71993e-05
9.80929e-05
9.90759e-05
0.000100147
0.000101279
0.000102535
0.000104941
0.00010932
0.000110149
0.000111102
0.000116574
0.000121822
0.000126371
0.000132517
0.000136968
5.75801e-05
5.59659e-05
5.66715e-05
5.73809e-05
5.8093e-05
5.88101e-05
5.95225e-05
6.0233e-05
6.09388e-05
6.16346e-05
6.23268e-05
6.30135e-05
6.36881e-05
6.4353e-05
6.50126e-05
6.56621e-05
6.62971e-05
6.69197e-05
6.75328e-05
6.81346e-05
6.87226e-05
6.92974e-05
6.98577e-05
7.04054e-05
7.0939e-05
7.14587e-05
7.19665e-05
7.24627e-05
7.29459e-05
7.34156e-05
7.38728e-05
7.43198e-05
7.47566e-05
7.51829e-05
7.56e-05
7.60087e-05
7.64118e-05
7.68074e-05
7.71983e-05
7.75854e-05
7.79674e-05
7.83483e-05
7.87301e-05
7.91143e-05
7.94988e-05
7.9885e-05
8.02774e-05
8.06745e-05
8.10785e-05
8.14879e-05
8.19029e-05
8.23252e-05
8.27557e-05
8.31948e-05
8.36445e-05
8.41036e-05
8.4576e-05
8.5066e-05
8.55722e-05
8.60939e-05
8.66358e-05
8.71969e-05
8.77804e-05
8.83923e-05
8.90338e-05
8.97027e-05
9.04033e-05
9.11328e-05
9.1895e-05
9.26927e-05
9.35209e-05
9.43875e-05
9.53056e-05
9.63165e-05
9.74196e-05
9.85769e-05
9.98235e-05
0.000102805
0.000106255
0.000107147
0.000108754
0.00011446
0.000118952
0.000122498
0.000127188
0.000133216
7.00154e-05
6.43133e-05
6.4671e-05
6.50443e-05
6.5421e-05
6.58024e-05
6.6185e-05
6.65669e-05
6.69504e-05
6.73286e-05
6.77036e-05
6.8077e-05
6.84437e-05
6.88073e-05
6.91667e-05
6.95196e-05
6.98681e-05
7.02117e-05
7.055e-05
7.08801e-05
7.12036e-05
7.15205e-05
7.18314e-05
7.21376e-05
7.24361e-05
7.27274e-05
7.30137e-05
7.32951e-05
7.357e-05
7.384e-05
7.41041e-05
7.43646e-05
7.46235e-05
7.48784e-05
7.51316e-05
7.5382e-05
7.56329e-05
7.58872e-05
7.61421e-05
7.63977e-05
7.66559e-05
7.69201e-05
7.71905e-05
7.74683e-05
7.77545e-05
7.80501e-05
7.83548e-05
7.86707e-05
7.89994e-05
7.93388e-05
7.96926e-05
8.00568e-05
8.04339e-05
8.08264e-05
8.12322e-05
8.1652e-05
8.20918e-05
8.25531e-05
8.30354e-05
8.35405e-05
8.40689e-05
8.4619e-05
8.51984e-05
8.58106e-05
8.64548e-05
8.71308e-05
8.78408e-05
8.85829e-05
8.93621e-05
9.01775e-05
9.1027e-05
9.19172e-05
9.28609e-05
9.38993e-05
9.50068e-05
9.61716e-05
9.74927e-05
0.000101092
0.000103585
0.000104433
0.000106516
0.000112378
0.000116241
0.000119075
0.000122185
0.000128187
7.97994e-05
7.0945e-05
7.0989e-05
7.10621e-05
7.11427e-05
7.12336e-05
7.13313e-05
7.14309e-05
7.15311e-05
7.1635e-05
7.17424e-05
7.18517e-05
7.19594e-05
7.20683e-05
7.21827e-05
7.22943e-05
7.24047e-05
7.25175e-05
7.26312e-05
7.27436e-05
7.28568e-05
7.29694e-05
7.30818e-05
7.31958e-05
7.33086e-05
7.34215e-05
7.35355e-05
7.36495e-05
7.37629e-05
7.38784e-05
7.39965e-05
7.41166e-05
7.42394e-05
7.43659e-05
7.44957e-05
7.46295e-05
7.47702e-05
7.49178e-05
7.50713e-05
7.52312e-05
7.54006e-05
7.55809e-05
7.57733e-05
7.59782e-05
7.61936e-05
7.6425e-05
7.66725e-05
7.6934e-05
7.72113e-05
7.75051e-05
7.78166e-05
7.8145e-05
7.84918e-05
7.88536e-05
7.92341e-05
7.96351e-05
8.00589e-05
8.05057e-05
8.09779e-05
8.1478e-05
8.20048e-05
8.25563e-05
8.31415e-05
8.37594e-05
8.44121e-05
8.50972e-05
8.58178e-05
8.65742e-05
8.73672e-05
8.81978e-05
8.90622e-05
8.99688e-05
9.09282e-05
9.19798e-05
9.30679e-05
9.42203e-05
9.57771e-05
9.96915e-05
0.000101422
0.000102173
0.000104685
0.000110328
0.000113698
0.000115942
0.000117825
0.000123141
8.49675e-05
7.45573e-05
7.43895e-05
7.4271e-05
7.41649e-05
7.40729e-05
7.39875e-05
7.39073e-05
7.38331e-05
7.37673e-05
7.37067e-05
7.36504e-05
7.36018e-05
7.3559e-05
7.35181e-05
7.34826e-05
7.34529e-05
7.34271e-05
7.34046e-05
7.33878e-05
7.33752e-05
7.33647e-05
7.33606e-05
7.33618e-05
7.33653e-05
7.33724e-05
7.33859e-05
7.34049e-05
7.34268e-05
7.34538e-05
7.34877e-05
7.3527e-05
7.35739e-05
7.36277e-05
7.36895e-05
7.37585e-05
7.38374e-05
7.39271e-05
7.40251e-05
7.41345e-05
7.42579e-05
7.43945e-05
7.45433e-05
7.47089e-05
7.48898e-05
7.50887e-05
7.53066e-05
7.55438e-05
7.57995e-05
7.60741e-05
7.63677e-05
7.66801e-05
7.70144e-05
7.73673e-05
7.77395e-05
7.81355e-05
7.85566e-05
7.90026e-05
7.9476e-05
7.99777e-05
8.05079e-05
8.10652e-05
8.16553e-05
8.22808e-05
8.294e-05
8.36309e-05
8.43592e-05
8.51191e-05
8.59149e-05
8.67462e-05
8.76103e-05
8.8515e-05
8.94663e-05
9.05077e-05
9.1558e-05
9.26833e-05
9.45553e-05
9.81571e-05
9.95362e-05
0.000100316
0.000103167
0.000107833
0.000111187
0.000112864
0.000113954
0.000118841
8.58576e-05
7.53046e-05
7.50372e-05
7.48366e-05
7.46504e-05
7.44792e-05
7.43167e-05
7.41643e-05
7.40216e-05
7.38859e-05
7.37582e-05
7.36374e-05
7.35218e-05
7.34146e-05
7.3318e-05
7.32271e-05
7.31419e-05
7.30639e-05
7.29916e-05
7.29244e-05
7.28649e-05
7.28106e-05
7.27629e-05
7.27233e-05
7.26889e-05
7.26587e-05
7.26366e-05
7.2622e-05
7.26108e-05
7.26072e-05
7.2614e-05
7.26276e-05
7.26478e-05
7.26791e-05
7.27199e-05
7.27688e-05
7.28293e-05
7.29017e-05
7.29843e-05
7.30793e-05
7.319e-05
7.33156e-05
7.34561e-05
7.36134e-05
7.37868e-05
7.39798e-05
7.41933e-05
7.44273e-05
7.46808e-05
7.49546e-05
7.52491e-05
7.55623e-05
7.58963e-05
7.62525e-05
7.66287e-05
7.70283e-05
7.74531e-05
7.79029e-05
7.83799e-05
7.88855e-05
7.94202e-05
7.99819e-05
8.05734e-05
8.11959e-05
8.1852e-05
8.25405e-05
8.32607e-05
8.40126e-05
8.47967e-05
8.56124e-05
8.64602e-05
8.73418e-05
8.8269e-05
8.92776e-05
9.02687e-05
9.1373e-05
9.34945e-05
9.63832e-05
9.77822e-05
9.86649e-05
0.000101593
0.000105279
0.00010859
0.000109755
0.000110621
0.000114921
8.42552e-05
7.42773e-05
7.39828e-05
7.37702e-05
7.35742e-05
7.33912e-05
7.32187e-05
7.30587e-05
7.29075e-05
7.27641e-05
7.26306e-05
7.25036e-05
7.23828e-05
7.22724e-05
7.21711e-05
7.20773e-05
7.19915e-05
7.19108e-05
7.18369e-05
7.17711e-05
7.17095e-05
7.16548e-05
7.16079e-05
7.15678e-05
7.15347e-05
7.15065e-05
7.14866e-05
7.14739e-05
7.14674e-05
7.14688e-05
7.14787e-05
7.14968e-05
7.15215e-05
7.15563e-05
7.16006e-05
7.16554e-05
7.17213e-05
7.17983e-05
7.18888e-05
7.1991e-05
7.21079e-05
7.2241e-05
7.23884e-05
7.2554e-05
7.27369e-05
7.29389e-05
7.31616e-05
7.34026e-05
7.36639e-05
7.39479e-05
7.42508e-05
7.45723e-05
7.49153e-05
7.52795e-05
7.56627e-05
7.60668e-05
7.64959e-05
7.69506e-05
7.74316e-05
7.7938e-05
7.84707e-05
7.90316e-05
7.96184e-05
8.02336e-05
8.08812e-05
8.15555e-05
8.22594e-05
8.29947e-05
8.37572e-05
8.45479e-05
8.53681e-05
8.62191e-05
8.71129e-05
8.80631e-05
8.89909e-05
9.0106e-05
9.23484e-05
9.45147e-05
9.60152e-05
9.69965e-05
9.99699e-05
0.000102942
0.000105798
0.000106714
0.000107369
0.000111195
8.1857e-05
7.25981e-05
7.23052e-05
7.21084e-05
7.19262e-05
7.17546e-05
7.15937e-05
7.1449e-05
7.13148e-05
7.11857e-05
7.10655e-05
7.09525e-05
7.08468e-05
7.07517e-05
7.06633e-05
7.05818e-05
7.05092e-05
7.04429e-05
7.03828e-05
7.0329e-05
7.02811e-05
7.02416e-05
7.02091e-05
7.01815e-05
7.01606e-05
7.01464e-05
7.01391e-05
7.01382e-05
7.01455e-05
7.01595e-05
7.01808e-05
7.02115e-05
7.02495e-05
7.0296e-05
7.03526e-05
7.04197e-05
7.04983e-05
7.05889e-05
7.06912e-05
7.08066e-05
7.09354e-05
7.10788e-05
7.12384e-05
7.14154e-05
7.16111e-05
7.18252e-05
7.20597e-05
7.23143e-05
7.25867e-05
7.28809e-05
7.31949e-05
7.35264e-05
7.38779e-05
7.4249e-05
7.464e-05
7.50512e-05
7.54842e-05
7.59417e-05
7.64226e-05
7.6929e-05
7.74596e-05
7.80147e-05
7.85952e-05
7.92004e-05
7.9835e-05
8.04957e-05
8.11827e-05
8.18967e-05
8.26358e-05
8.34001e-05
8.4189e-05
8.50086e-05
8.58697e-05
8.67573e-05
8.76325e-05
8.87764e-05
9.1095e-05
9.26999e-05
9.41726e-05
9.5192e-05
9.81861e-05
0.00010047
0.000103014
0.000103538
0.000104244
0.000107392
7.9554e-05
7.08832e-05
7.05886e-05
7.04033e-05
7.02363e-05
7.0078e-05
6.99328e-05
6.97997e-05
6.96738e-05
6.95591e-05
6.94533e-05
6.9351e-05
6.92576e-05
6.91749e-05
6.90982e-05
6.90283e-05
6.89663e-05
6.89109e-05
6.88605e-05
6.88177e-05
6.87809e-05
6.87513e-05
6.87287e-05
6.87109e-05
6.87011e-05
6.86981e-05
6.87004e-05
6.87092e-05
6.87253e-05
6.87484e-05
6.87812e-05
6.88211e-05
6.88675e-05
6.89245e-05
6.89924e-05
6.90704e-05
6.91591e-05
6.92586e-05
6.93699e-05
6.94958e-05
6.96366e-05
6.97918e-05
6.9963e-05
7.01523e-05
7.03581e-05
7.05823e-05
7.08269e-05
7.10922e-05
7.13768e-05
7.16806e-05
7.20037e-05
7.23463e-05
7.27052e-05
7.30823e-05
7.34802e-05
7.38975e-05
7.43347e-05
7.47956e-05
7.52786e-05
7.57846e-05
7.63133e-05
7.68631e-05
7.74373e-05
7.80345e-05
7.86558e-05
7.93035e-05
7.99763e-05
8.06732e-05
8.13925e-05
8.21338e-05
8.28971e-05
8.36878e-05
8.45182e-05
8.53438e-05
8.61787e-05
8.74348e-05
8.98838e-05
9.09276e-05
9.22118e-05
9.32562e-05
9.61139e-05
9.80073e-05
0.000100063
0.000100428
0.000101036
0.000103581
7.74892e-05
6.9264e-05
6.89618e-05
6.87824e-05
6.86208e-05
6.84699e-05
6.8331e-05
6.82026e-05
6.80828e-05
6.79729e-05
6.78723e-05
6.77766e-05
6.76885e-05
6.76099e-05
6.7539e-05
6.74744e-05
6.74162e-05
6.73648e-05
6.73197e-05
6.72821e-05
6.7251e-05
6.72257e-05
6.72069e-05
6.71939e-05
6.71882e-05
6.71893e-05
6.71961e-05
6.72106e-05
6.72328e-05
6.7262e-05
6.7299e-05
6.73438e-05
6.73964e-05
6.746e-05
6.7534e-05
6.76187e-05
6.77148e-05
6.78214e-05
6.79408e-05
6.80747e-05
6.8224e-05
6.83884e-05
6.85689e-05
6.87664e-05
6.89818e-05
6.92172e-05
6.94719e-05
6.97468e-05
7.00421e-05
7.03555e-05
7.06872e-05
7.10375e-05
7.1405e-05
7.17912e-05
7.21962e-05
7.26199e-05
7.30621e-05
7.35262e-05
7.40113e-05
7.4519e-05
7.50461e-05
7.55951e-05
7.61659e-05
7.67571e-05
7.73712e-05
7.80075e-05
7.8666e-05
7.93465e-05
8.00473e-05
8.07701e-05
8.15131e-05
8.22788e-05
8.30802e-05
8.3853e-05
8.46579e-05
8.60962e-05
8.85372e-05
8.91337e-05
9.01965e-05
9.122e-05
9.41429e-05
9.53969e-05
9.71759e-05
9.72673e-05
9.78801e-05
9.9864e-05
7.55305e-05
6.76614e-05
6.73481e-05
6.71705e-05
6.70128e-05
6.68642e-05
6.67255e-05
6.65992e-05
6.64819e-05
6.63726e-05
6.62733e-05
6.61804e-05
6.60931e-05
6.60149e-05
6.59439e-05
6.58806e-05
6.58263e-05
6.57765e-05
6.57328e-05
6.56972e-05
6.56675e-05
6.56445e-05
6.56268e-05
6.56158e-05
6.5613e-05
6.56167e-05
6.56255e-05
6.56415e-05
6.56682e-05
6.57011e-05
6.57412e-05
6.5791e-05
6.58491e-05
6.59166e-05
6.59949e-05
6.60851e-05
6.61858e-05
6.62993e-05
6.64268e-05
6.65673e-05
6.67236e-05
6.68959e-05
6.70848e-05
6.72919e-05
6.75182e-05
6.77628e-05
6.80264e-05
6.83105e-05
6.86146e-05
6.89377e-05
6.9281e-05
6.96422e-05
7.00185e-05
7.04121e-05
7.08232e-05
7.12535e-05
7.1702e-05
7.21718e-05
7.26623e-05
7.3171e-05
7.36978e-05
7.42469e-05
7.4815e-05
7.54011e-05
7.60073e-05
7.66351e-05
7.72846e-05
7.79538e-05
7.86393e-05
7.93442e-05
8.00676e-05
8.08139e-05
8.15773e-05
8.23009e-05
8.30839e-05
8.46922e-05
8.68393e-05
8.72653e-05
8.81857e-05
8.92386e-05
9.1951e-05
9.28465e-05
9.40953e-05
9.41281e-05
9.47423e-05
9.62541e-05
7.35528e-05
6.60026e-05
6.56771e-05
6.55006e-05
6.53423e-05
6.51943e-05
6.50578e-05
6.49325e-05
6.48164e-05
6.47088e-05
6.46108e-05
6.45199e-05
6.44338e-05
6.43552e-05
6.42861e-05
6.42243e-05
6.41683e-05
6.41191e-05
6.40777e-05
6.40442e-05
6.40156e-05
6.39929e-05
6.39777e-05
6.39691e-05
6.39683e-05
6.3974e-05
6.3986e-05
6.40058e-05
6.40348e-05
6.40706e-05
6.4114e-05
6.41675e-05
6.423e-05
6.43033e-05
6.43867e-05
6.44829e-05
6.4591e-05
6.47106e-05
6.48449e-05
6.49952e-05
6.51599e-05
6.53396e-05
6.55383e-05
6.57553e-05
6.599e-05
6.62446e-05
6.6519e-05
6.68138e-05
6.7129e-05
6.74631e-05
6.78156e-05
6.81852e-05
6.85724e-05
6.89757e-05
6.93949e-05
6.98315e-05
7.02867e-05
7.07614e-05
7.12547e-05
7.17679e-05
7.22974e-05
7.28455e-05
7.34096e-05
7.39917e-05
7.45932e-05
7.52124e-05
7.58503e-05
7.6508e-05
7.71798e-05
7.78668e-05
7.8571e-05
7.92992e-05
8.002e-05
8.0706e-05
8.14679e-05
8.31964e-05
8.49051e-05
8.53483e-05
8.61996e-05
8.72502e-05
8.97499e-05
8.9919e-05
9.10585e-05
9.10545e-05
9.15684e-05
9.25592e-05
7.15335e-05
6.42737e-05
6.39346e-05
6.37595e-05
6.3601e-05
6.34559e-05
6.33233e-05
6.31971e-05
6.30815e-05
6.29747e-05
6.28764e-05
6.27883e-05
6.27049e-05
6.26286e-05
6.25593e-05
6.24984e-05
6.24448e-05
6.23967e-05
6.23578e-05
6.23257e-05
6.22993e-05
6.22801e-05
6.2267e-05
6.22602e-05
6.22616e-05
6.22715e-05
6.22871e-05
6.23103e-05
6.23424e-05
6.2382e-05
6.24305e-05
6.24881e-05
6.25559e-05
6.26351e-05
6.27259e-05
6.28277e-05
6.29425e-05
6.30709e-05
6.32129e-05
6.33708e-05
6.35449e-05
6.37348e-05
6.39428e-05
6.41692e-05
6.44149e-05
6.4681e-05
6.49664e-05
6.52715e-05
6.55978e-05
6.59426e-05
6.63056e-05
6.66859e-05
6.70826e-05
6.74943e-05
6.7921e-05
6.83644e-05
6.88269e-05
6.93074e-05
6.98038e-05
7.03192e-05
7.08507e-05
7.13974e-05
7.19597e-05
7.25381e-05
7.31331e-05
7.37448e-05
7.43727e-05
7.50166e-05
7.56727e-05
7.63438e-05
7.70319e-05
7.77411e-05
7.84133e-05
7.90721e-05
7.98143e-05
8.16156e-05
8.29184e-05
8.3396e-05
8.41731e-05
8.51461e-05
8.73149e-05
8.74851e-05
8.80861e-05
8.79748e-05
8.84983e-05
8.91515e-05
6.94656e-05
6.24849e-05
6.2132e-05
6.19585e-05
6.18023e-05
6.16604e-05
6.15281e-05
6.14034e-05
6.129e-05
6.11873e-05
6.1091e-05
6.10035e-05
6.09231e-05
6.08491e-05
6.07831e-05
6.0723e-05
6.06708e-05
6.06261e-05
6.05888e-05
6.05585e-05
6.05349e-05
6.05179e-05
6.05072e-05
6.0505e-05
6.05099e-05
6.0522e-05
6.05414e-05
6.05687e-05
6.06054e-05
6.06505e-05
6.07041e-05
6.07669e-05
6.08404e-05
6.09261e-05
6.10244e-05
6.11339e-05
6.12558e-05
6.13931e-05
6.15446e-05
6.17105e-05
6.18929e-05
6.20939e-05
6.2313e-05
6.25486e-05
6.28055e-05
6.30827e-05
6.33783e-05
6.36945e-05
6.40318e-05
6.43882e-05
6.47617e-05
6.51514e-05
6.55582e-05
6.59796e-05
6.64144e-05
6.68651e-05
6.73328e-05
6.78172e-05
6.83179e-05
6.88343e-05
6.9365e-05
6.99102e-05
7.04696e-05
7.10449e-05
7.16328e-05
7.22351e-05
7.28537e-05
7.34838e-05
7.41255e-05
7.47815e-05
7.54514e-05
7.6138e-05
7.67661e-05
7.74016e-05
7.8122e-05
7.99728e-05
8.09469e-05
8.13872e-05
8.20877e-05
8.30464e-05
8.48674e-05
8.45731e-05
8.50311e-05
8.50236e-05
8.5579e-05
8.59965e-05
6.73945e-05
6.06616e-05
6.02927e-05
6.01187e-05
5.9966e-05
5.98275e-05
5.9697e-05
5.95764e-05
5.94656e-05
5.93631e-05
5.92695e-05
5.91839e-05
5.91047e-05
5.90343e-05
5.89709e-05
5.89132e-05
5.88635e-05
5.88221e-05
5.87878e-05
5.87598e-05
5.87393e-05
5.87255e-05
5.87174e-05
5.8718e-05
5.87269e-05
5.87421e-05
5.87666e-05
5.87996e-05
5.88395e-05
5.88887e-05
5.89478e-05
5.90173e-05
5.9098e-05
5.91895e-05
5.92938e-05
5.94119e-05
5.95424e-05
5.96874e-05
5.9848e-05
6.00235e-05
6.0217e-05
6.04288e-05
6.06577e-05
6.09053e-05
6.11728e-05
6.14599e-05
6.17666e-05
6.20946e-05
6.24427e-05
6.28093e-05
6.31936e-05
6.3592e-05
6.40076e-05
6.4437e-05
6.48793e-05
6.53359e-05
6.58076e-05
6.62959e-05
6.67992e-05
6.73168e-05
6.78475e-05
6.83912e-05
6.89471e-05
6.95162e-05
7.00977e-05
7.06904e-05
7.12951e-05
7.19128e-05
7.25411e-05
7.31811e-05
7.38346e-05
7.44916e-05
7.50837e-05
7.56995e-05
7.64019e-05
7.82805e-05
7.8996e-05
7.93848e-05
7.99842e-05
8.08903e-05
8.23417e-05
8.19363e-05
8.21709e-05
8.21757e-05
8.27025e-05
8.28062e-05
6.5315e-05
5.88138e-05
5.8429e-05
5.82577e-05
5.8107e-05
5.79721e-05
5.78455e-05
5.77266e-05
5.76187e-05
5.75185e-05
5.74268e-05
5.73446e-05
5.72684e-05
5.71988e-05
5.71368e-05
5.70831e-05
5.70365e-05
5.69977e-05
5.69662e-05
5.69409e-05
5.69234e-05
5.69125e-05
5.69085e-05
5.69127e-05
5.69249e-05
5.69454e-05
5.69736e-05
5.70109e-05
5.70565e-05
5.71108e-05
5.7176e-05
5.72523e-05
5.73398e-05
5.74384e-05
5.75501e-05
5.76756e-05
5.78141e-05
5.79679e-05
5.81381e-05
5.83242e-05
5.85272e-05
5.87479e-05
5.89871e-05
5.92452e-05
5.95239e-05
5.98229e-05
6.01408e-05
6.04796e-05
6.08375e-05
6.12135e-05
6.16078e-05
6.20164e-05
6.24393e-05
6.28754e-05
6.33236e-05
6.37849e-05
6.42624e-05
6.47534e-05
6.52579e-05
6.57764e-05
6.63049e-05
6.68447e-05
6.73969e-05
6.79587e-05
6.85313e-05
6.91149e-05
6.97089e-05
7.03129e-05
7.09255e-05
7.1548e-05
7.21832e-05
7.28072e-05
7.33709e-05
7.39618e-05
7.46503e-05
7.6534e-05
7.70574e-05
7.73901e-05
7.78555e-05
7.86846e-05
7.98145e-05
7.9198e-05
7.93924e-05
7.94527e-05
7.99375e-05
7.97972e-05
6.32498e-05
5.69577e-05
5.65546e-05
5.63856e-05
5.62387e-05
5.61055e-05
5.59806e-05
5.58654e-05
5.57611e-05
5.56646e-05
5.55744e-05
5.54933e-05
5.54203e-05
5.53552e-05
5.52961e-05
5.52441e-05
5.5201e-05
5.51648e-05
5.51363e-05
5.51136e-05
5.50982e-05
5.50909e-05
5.50912e-05
5.50998e-05
5.51164e-05
5.51411e-05
5.51742e-05
5.52155e-05
5.52659e-05
5.53272e-05
5.53987e-05
5.54805e-05
5.55743e-05
5.56806e-05
5.57997e-05
5.59332e-05
5.60815e-05
5.62451e-05
5.64236e-05
5.6619e-05
5.68323e-05
5.70639e-05
5.73142e-05
5.75829e-05
5.78718e-05
5.81806e-05
5.85089e-05
5.88584e-05
5.92274e-05
5.96132e-05
6.00154e-05
6.04318e-05
6.08612e-05
6.13032e-05
6.17577e-05
6.22239e-05
6.27035e-05
6.31954e-05
6.36995e-05
6.4216e-05
6.47435e-05
6.52798e-05
6.58253e-05
6.63799e-05
6.69427e-05
6.75147e-05
6.80966e-05
6.86862e-05
6.9284e-05
6.98904e-05
7.05081e-05
7.10939e-05
7.16348e-05
7.21992e-05
7.28691e-05
7.47667e-05
7.51039e-05
7.53682e-05
7.57109e-05
7.64977e-05
7.73409e-05
7.66018e-05
7.6694e-05
7.67525e-05
7.70041e-05
7.69078e-05
6.11935e-05
5.50991e-05
5.46793e-05
5.45127e-05
5.43682e-05
5.4238e-05
5.41165e-05
5.40042e-05
5.39024e-05
5.38082e-05
5.37218e-05
5.36442e-05
5.35738e-05
5.35104e-05
5.34537e-05
5.34051e-05
5.33654e-05
5.33321e-05
5.33055e-05
5.32871e-05
5.32757e-05
5.3272e-05
5.32766e-05
5.32885e-05
5.33085e-05
5.33376e-05
5.33763e-05
5.3423e-05
5.34793e-05
5.35469e-05
5.36246e-05
5.3713e-05
5.38137e-05
5.3927e-05
5.40539e-05
5.41964e-05
5.43537e-05
5.45257e-05
5.47137e-05
5.49194e-05
5.5143e-05
5.53847e-05
5.56444e-05
5.59238e-05
5.62237e-05
5.65423e-05
5.68808e-05
5.72392e-05
5.76162e-05
5.80116e-05
5.84214e-05
5.88442e-05
5.92811e-05
5.97281e-05
6.01867e-05
6.0656e-05
6.11364e-05
6.16285e-05
6.21317e-05
6.26461e-05
6.31698e-05
6.37004e-05
6.42378e-05
6.47825e-05
6.5335e-05
6.58955e-05
6.6464e-05
6.70385e-05
6.76207e-05
6.82106e-05
6.88098e-05
6.93579e-05
6.98786e-05
7.04161e-05
7.10672e-05
7.29633e-05
7.31231e-05
7.33322e-05
7.35961e-05
7.43151e-05
7.49531e-05
7.39731e-05
7.40296e-05
7.41322e-05
7.43838e-05
7.42681e-05
5.91617e-05
5.325e-05
5.28102e-05
5.26453e-05
5.2505e-05
5.23771e-05
5.22592e-05
5.21512e-05
5.20523e-05
5.19617e-05
5.18776e-05
5.18011e-05
5.17336e-05
5.16741e-05
5.16217e-05
5.15764e-05
5.15383e-05
5.15082e-05
5.14852e-05
5.14698e-05
5.14624e-05
5.14633e-05
5.14718e-05
5.14882e-05
5.15127e-05
5.15456e-05
5.15895e-05
5.16421e-05
5.17036e-05
5.17774e-05
5.18618e-05
5.19571e-05
5.20662e-05
5.21874e-05
5.23224e-05
5.24729e-05
5.26383e-05
5.28196e-05
5.3017e-05
5.32326e-05
5.34665e-05
5.37178e-05
5.3987e-05
5.42767e-05
5.45859e-05
5.49139e-05
5.52625e-05
5.56298e-05
5.60154e-05
5.64177e-05
5.68337e-05
5.72636e-05
5.77048e-05
5.8155e-05
5.86168e-05
5.90871e-05
5.95678e-05
6.00589e-05
6.05598e-05
6.10696e-05
6.15862e-05
6.21102e-05
6.26395e-05
6.31733e-05
6.37146e-05
6.42624e-05
6.48157e-05
6.5375e-05
6.59415e-05
6.65134e-05
6.70894e-05
6.76022e-05
6.81073e-05
6.86166e-05
6.92421e-05
7.11454e-05
7.11316e-05
7.12558e-05
7.1477e-05
7.22048e-05
7.26825e-05
7.15492e-05
7.14891e-05
7.15925e-05
7.17537e-05
7.17555e-05
5.71589e-05
5.14158e-05
5.09557e-05
5.07923e-05
5.06566e-05
5.05323e-05
5.0418e-05
5.03132e-05
5.02175e-05
5.01299e-05
5.00492e-05
4.99764e-05
4.99121e-05
4.98553e-05
4.98052e-05
4.97626e-05
4.97285e-05
4.9702e-05
4.96829e-05
4.96709e-05
4.96671e-05
4.96717e-05
4.96846e-05
4.97056e-05
4.97346e-05
4.97734e-05
4.98223e-05
4.98802e-05
4.99483e-05
5.00287e-05
5.01194e-05
5.02216e-05
5.0338e-05
5.04676e-05
5.06109e-05
5.07693e-05
5.09435e-05
5.11338e-05
5.13411e-05
5.15667e-05
5.18096e-05
5.20705e-05
5.23498e-05
5.26489e-05
5.29672e-05
5.33037e-05
5.36601e-05
5.40358e-05
5.44282e-05
5.48361e-05
5.52576e-05
5.56917e-05
5.61371e-05
5.65907e-05
5.70528e-05
5.75236e-05
5.80028e-05
5.84899e-05
5.89867e-05
5.94911e-05
6.00001e-05
6.05156e-05
6.10356e-05
6.15583e-05
6.20859e-05
6.26199e-05
6.31582e-05
6.37009e-05
6.42503e-05
6.48047e-05
6.53539e-05
6.58354e-05
6.63248e-05
6.68071e-05
6.74032e-05
6.93103e-05
6.91105e-05
6.91608e-05
6.93813e-05
7.01389e-05
7.05238e-05
6.91857e-05
6.90236e-05
6.91222e-05
6.93028e-05
6.93558e-05
5.5182e-05
4.96045e-05
4.91248e-05
4.8962e-05
4.88292e-05
4.87091e-05
4.85986e-05
4.84965e-05
4.8404e-05
4.832e-05
4.82419e-05
4.81727e-05
4.81117e-05
4.80576e-05
4.80111e-05
4.79728e-05
4.79423e-05
4.79187e-05
4.79033e-05
4.78959e-05
4.78964e-05
4.79049e-05
4.79219e-05
4.79477e-05
4.79822e-05
4.80259e-05
4.80799e-05
4.81442e-05
4.82191e-05
4.83054e-05
4.84033e-05
4.85127e-05
4.86364e-05
4.87741e-05
4.89257e-05
4.90923e-05
4.9275e-05
4.94748e-05
4.96914e-05
4.99255e-05
5.01773e-05
5.04472e-05
5.07357e-05
5.10437e-05
5.13699e-05
5.1715e-05
5.20793e-05
5.24611e-05
5.28592e-05
5.32723e-05
5.36982e-05
5.41358e-05
5.4583e-05
5.50375e-05
5.54991e-05
5.59674e-05
5.64437e-05
5.69269e-05
5.74178e-05
5.79147e-05
5.84153e-05
5.89214e-05
5.94289e-05
5.99388e-05
6.04523e-05
6.09706e-05
6.14936e-05
6.20209e-05
6.25523e-05
6.30889e-05
6.36088e-05
6.40636e-05
6.4539e-05
6.49917e-05
6.55575e-05
6.74289e-05
6.70896e-05
6.70499e-05
6.73078e-05
6.81296e-05
6.84632e-05
6.69118e-05
6.66518e-05
6.67655e-05
6.69391e-05
6.70634e-05
5.32497e-05
4.78214e-05
4.732e-05
4.71583e-05
4.7029e-05
4.69121e-05
4.68059e-05
4.67085e-05
4.66193e-05
4.65382e-05
4.64639e-05
4.63981e-05
4.634e-05
4.62886e-05
4.62455e-05
4.62112e-05
4.61846e-05
4.61653e-05
4.61537e-05
4.61501e-05
4.61549e-05
4.61681e-05
4.61902e-05
4.62203e-05
4.62598e-05
4.63093e-05
4.63687e-05
4.64387e-05
4.65199e-05
4.6613e-05
4.67183e-05
4.68353e-05
4.69659e-05
4.71117e-05
4.72717e-05
4.74464e-05
4.76379e-05
4.78462e-05
4.80712e-05
4.83137e-05
4.85742e-05
4.8853e-05
4.915e-05
4.94658e-05
4.97994e-05
5.01519e-05
5.05223e-05
5.09096e-05
5.13129e-05
5.17299e-05
5.21588e-05
5.25978e-05
5.30448e-05
5.34983e-05
5.39577e-05
5.44233e-05
5.48951e-05
5.53719e-05
5.58555e-05
5.63431e-05
5.68333e-05
5.73275e-05
5.78229e-05
5.832e-05
5.88189e-05
5.93219e-05
5.98277e-05
6.03362e-05
6.08494e-05
6.13692e-05
6.18586e-05
6.22914e-05
6.27514e-05
6.31737e-05
6.37074e-05
6.55468e-05
6.50762e-05
6.49493e-05
6.53026e-05
6.61656e-05
6.64365e-05
6.47034e-05
6.43535e-05
6.44991e-05
6.46422e-05
6.48046e-05
5.1349e-05
4.60736e-05
4.55496e-05
4.53875e-05
4.52619e-05
4.51482e-05
4.50455e-05
4.49518e-05
4.48658e-05
4.47884e-05
4.47183e-05
4.46566e-05
4.46017e-05
4.45541e-05
4.45152e-05
4.44844e-05
4.44612e-05
4.44457e-05
4.44379e-05
4.44388e-05
4.4448e-05
4.44657e-05
4.44925e-05
4.45282e-05
4.45731e-05
4.46278e-05
4.46933e-05
4.47697e-05
4.48572e-05
4.49565e-05
4.50682e-05
4.51931e-05
4.53321e-05
4.54859e-05
4.56539e-05
4.58369e-05
4.6037e-05
4.62536e-05
4.64866e-05
4.67377e-05
4.70063e-05
4.72923e-05
4.75969e-05
4.79201e-05
4.82606e-05
4.86187e-05
4.89944e-05
4.93855e-05
4.97915e-05
5.02115e-05
5.06412e-05
5.10802e-05
5.15266e-05
5.19778e-05
5.24338e-05
5.28937e-05
5.33588e-05
5.38281e-05
5.4302e-05
5.4779e-05
5.52587e-05
5.57402e-05
5.62219e-05
5.67045e-05
5.71885e-05
5.7674e-05
5.81617e-05
5.8653e-05
5.91493e-05
5.965e-05
6.01092e-05
6.05228e-05
6.09653e-05
6.13595e-05
6.18628e-05
6.36208e-05
6.30818e-05
6.28795e-05
6.33417e-05
6.42482e-05
6.4446e-05
6.24962e-05
6.21216e-05
6.22806e-05
6.2432e-05
6.26337e-05
4.94968e-05
4.43632e-05
4.3816e-05
4.36527e-05
4.35311e-05
4.34221e-05
4.33226e-05
4.32326e-05
4.31502e-05
4.3076e-05
4.30096e-05
4.29519e-05
4.29016e-05
4.28576e-05
4.2822e-05
4.27951e-05
4.27758e-05
4.27641e-05
4.27606e-05
4.2766e-05
4.27801e-05
4.28023e-05
4.28336e-05
4.28745e-05
4.29248e-05
4.29855e-05
4.30572e-05
4.314e-05
4.3234e-05
4.334e-05
4.34592e-05
4.35914e-05
4.37375e-05
4.38988e-05
4.40749e-05
4.42663e-05
4.44738e-05
4.46983e-05
4.49396e-05
4.51977e-05
4.54739e-05
4.57678e-05
4.6079e-05
4.64079e-05
4.67539e-05
4.71167e-05
4.74958e-05
4.78903e-05
4.82979e-05
4.87183e-05
4.91488e-05
4.95866e-05
5.00295e-05
5.04769e-05
5.09278e-05
5.13818e-05
5.18392e-05
5.22987e-05
5.27621e-05
5.32277e-05
5.36946e-05
5.41622e-05
5.46285e-05
5.50949e-05
5.55625e-05
5.60305e-05
5.65017e-05
5.69755e-05
5.74532e-05
5.79317e-05
5.83641e-05
5.87611e-05
5.91844e-05
5.95523e-05
6.00131e-05
6.16747e-05
6.1099e-05
6.08566e-05
6.1408e-05
6.23431e-05
6.24098e-05
6.0369e-05
5.99794e-05
6.01446e-05
6.02835e-05
6.05317e-05
4.76871e-05
4.26918e-05
4.21223e-05
4.19583e-05
4.18396e-05
4.17345e-05
4.16395e-05
4.15529e-05
4.14748e-05
4.14049e-05
4.13422e-05
4.12882e-05
4.12419e-05
4.12018e-05
4.11696e-05
4.11461e-05
4.11308e-05
4.11237e-05
4.11252e-05
4.11349e-05
4.11529e-05
4.11801e-05
4.12166e-05
4.12626e-05
4.13188e-05
4.13858e-05
4.14636e-05
4.15524e-05
4.1653e-05
4.17659e-05
4.18924e-05
4.20321e-05
4.21858e-05
4.23542e-05
4.2538e-05
4.27373e-05
4.29523e-05
4.31839e-05
4.34325e-05
4.36979e-05
4.39805e-05
4.42807e-05
4.45977e-05
4.49315e-05
4.52815e-05
4.56478e-05
4.6029e-05
4.64249e-05
4.68337e-05
4.72535e-05
4.76822e-05
4.81178e-05
4.85559e-05
4.89982e-05
4.9442e-05
4.98876e-05
5.03359e-05
5.07849e-05
5.12361e-05
5.16886e-05
5.21418e-05
5.25943e-05
5.30454e-05
5.34954e-05
5.39463e-05
5.43976e-05
5.48503e-05
5.53052e-05
5.57659e-05
5.62213e-05
5.66285e-05
5.70117e-05
5.74106e-05
5.77506e-05
5.81584e-05
5.97158e-05
5.91103e-05
5.88819e-05
5.94771e-05
6.04141e-05
6.03528e-05
5.82487e-05
5.7892e-05
5.80608e-05
5.82066e-05
5.85042e-05
4.5928e-05
4.1063e-05
4.04717e-05
4.03065e-05
4.01915e-05
4.009e-05
3.99986e-05
3.99168e-05
3.98423e-05
3.97758e-05
3.97179e-05
3.9667e-05
3.96236e-05
3.95881e-05
3.95602e-05
3.95412e-05
3.95305e-05
3.95277e-05
3.95334e-05
3.95479e-05
3.95711e-05
3.96031e-05
3.96445e-05
3.96961e-05
3.97585e-05
3.98314e-05
3.9915e-05
4.00097e-05
4.01173e-05
4.02372e-05
4.03701e-05
4.05172e-05
4.06779e-05
4.08532e-05
4.10442e-05
4.1251e-05
4.14735e-05
4.17118e-05
4.19668e-05
4.22388e-05
4.25273e-05
4.28325e-05
4.3154e-05
4.34916e-05
4.38448e-05
4.42134e-05
4.45965e-05
4.49924e-05
4.54003e-05
4.58181e-05
4.6243e-05
4.6673e-05
4.71062e-05
4.75419e-05
4.79769e-05
4.84131e-05
4.88508e-05
4.92883e-05