/*--------------------------------*- C++ -*----------------------------------*\
  =========                 |
  \\      /  F ield         | OpenFOAM: The Open Source CFD Toolbox
   \\    /   O peration     | Website:  https://openfoam.org
    \\  /    A nd           | Version:  9
     \\/     M anipulation  |
\*---------------------------------------------------------------------------*/
FoamFile
{
    format      ascii;
    class       volScalarField;
    location    "750";
    object      nut;
}
// * * * * * * * * * * * * * * * * * * * * * * * * * * * * * * * * * * * * * //

dimensions      [0 2 -1 0 0 0 0];

internalField   nonuniform List<scalar> 
13617
(
8.75723e-07
8.92025e-07
8.92507e-07
8.93248e-07
8.94128e-07
8.95065e-07
8.96041e-07
8.97051e-07
8.98085e-07
8.99129e-07
9.00188e-07
9.01257e-07
9.02332e-07
9.0342e-07
9.04519e-07
9.05626e-07
9.06746e-07
9.07873e-07
9.09e-07
9.10125e-07
9.11246e-07
9.12362e-07
9.13473e-07
9.14575e-07
9.15667e-07
9.16745e-07
9.1781e-07
9.18863e-07
9.199e-07
9.20922e-07
9.21928e-07
9.2292e-07
9.23894e-07
9.24857e-07
9.25808e-07
9.26749e-07
9.27678e-07
9.28594e-07
9.29503e-07
9.30403e-07
9.31298e-07
9.32189e-07
9.33076e-07
9.3396e-07
9.34846e-07
9.35735e-07
9.36628e-07
9.37522e-07
9.38407e-07
9.39276e-07
9.40115e-07
9.40919e-07
9.41683e-07
9.42403e-07
9.43082e-07
9.43728e-07
9.44346e-07
9.44939e-07
9.45513e-07
9.46067e-07
9.46607e-07
9.47137e-07
9.47671e-07
9.48227e-07
9.48814e-07
9.49429e-07
9.50073e-07
9.50747e-07
9.51455e-07
9.52189e-07
9.5294e-07
9.53759e-07
9.54803e-07
9.56328e-07
9.58327e-07
9.61149e-07
9.65862e-07
9.71552e-07
9.87748e-07
1.00412e-06
1.01122e-06
1.03546e-06
1.08018e-06
1.11673e-06
1.12075e-06
1.10126e-06
8.84095e-07
8.97304e-07
8.97678e-07
8.98287e-07
8.99024e-07
8.99816e-07
9.00641e-07
9.01487e-07
9.02354e-07
9.03238e-07
9.0413e-07
9.0503e-07
9.05936e-07
9.06851e-07
9.07777e-07
9.08708e-07
9.0965e-07
9.106e-07
9.11551e-07
9.12499e-07
9.13446e-07
9.14388e-07
9.15324e-07
9.16255e-07
9.17176e-07
9.18088e-07
9.18989e-07
9.1988e-07
9.2076e-07
9.21626e-07
9.22481e-07
9.23326e-07
9.2416e-07
9.24984e-07
9.25801e-07
9.26614e-07
9.2742e-07
9.28222e-07
9.29018e-07
9.29813e-07
9.30607e-07
9.31403e-07
9.32199e-07
9.32999e-07
9.33808e-07
9.34626e-07
9.35452e-07
9.36285e-07
9.37116e-07
9.37936e-07
9.38732e-07
9.39496e-07
9.40222e-07
9.40912e-07
9.41566e-07
9.42188e-07
9.42787e-07
9.43368e-07
9.43936e-07
9.44491e-07
9.45033e-07
9.4557e-07
9.46119e-07
9.46696e-07
9.47308e-07
9.47956e-07
9.48641e-07
9.49368e-07
9.50141e-07
9.5095e-07
9.51789e-07
9.52711e-07
9.53891e-07
9.55672e-07
9.57868e-07
9.60809e-07
9.65749e-07
9.72112e-07
9.99629e-07
1.01061e-06
1.01234e-06
1.03982e-06
1.0868e-06
1.13548e-06
1.15763e-06
1.13825e-06
8.97477e-07
9.04525e-07
9.04646e-07
9.04986e-07
9.05448e-07
9.05966e-07
9.06518e-07
9.071e-07
9.07705e-07
9.08322e-07
9.08957e-07
9.09599e-07
9.10249e-07
9.10916e-07
9.11599e-07
9.12294e-07
9.13e-07
9.13717e-07
9.1444e-07
9.15168e-07
9.15896e-07
9.16626e-07
9.17354e-07
9.1808e-07
9.18804e-07
9.19523e-07
9.20236e-07
9.20944e-07
9.21647e-07
9.22341e-07
9.23029e-07
9.23712e-07
9.2439e-07
9.25065e-07
9.25739e-07
9.26414e-07
9.27089e-07
9.27765e-07
9.28443e-07
9.29126e-07
9.29814e-07
9.30508e-07
9.31213e-07
9.31929e-07
9.32657e-07
9.33402e-07
9.34162e-07
9.34932e-07
9.35709e-07
9.36479e-07
9.37231e-07
9.37956e-07
9.38648e-07
9.39307e-07
9.39934e-07
9.40536e-07
9.41119e-07
9.4169e-07
9.42253e-07
9.42809e-07
9.43358e-07
9.43908e-07
9.44476e-07
9.45079e-07
9.45728e-07
9.46425e-07
9.47171e-07
9.47967e-07
9.48821e-07
9.49727e-07
9.50679e-07
9.5174e-07
9.53082e-07
9.55099e-07
9.57639e-07
9.60678e-07
9.65304e-07
9.74406e-07
1.00802e-06
1.01399e-06
1.01498e-06
1.04634e-06
1.08916e-06
1.13392e-06
1.17466e-06
1.16989e-06
9.13128e-07
9.13361e-07
9.1311e-07
9.13066e-07
9.13141e-07
9.13275e-07
9.13454e-07
9.13668e-07
9.13912e-07
9.14186e-07
9.14479e-07
9.14792e-07
9.15124e-07
9.15478e-07
9.15852e-07
9.16248e-07
9.1667e-07
9.17109e-07
9.17562e-07
9.18025e-07
9.18499e-07
9.1898e-07
9.19469e-07
9.19966e-07
9.20466e-07
9.2097e-07
9.21476e-07
9.21985e-07
9.22496e-07
9.23008e-07
9.23521e-07
9.24034e-07
9.24552e-07
9.25074e-07
9.25601e-07
9.26135e-07
9.26679e-07
9.27229e-07
9.2779e-07
9.28361e-07
9.28945e-07
9.29544e-07
9.3016e-07
9.30795e-07
9.31448e-07
9.32124e-07
9.32824e-07
9.33542e-07
9.34271e-07
9.34999e-07
9.35715e-07
9.36409e-07
9.37074e-07
9.37707e-07
9.38313e-07
9.38898e-07
9.39467e-07
9.4003e-07
9.40592e-07
9.41151e-07
9.4171e-07
9.42275e-07
9.42864e-07
9.435e-07
9.44193e-07
9.44945e-07
9.45757e-07
9.4663e-07
9.47575e-07
9.48586e-07
9.49667e-07
9.50879e-07
9.52377e-07
9.54564e-07
9.57456e-07
9.60562e-07
9.64644e-07
9.78007e-07
1.0088e-06
1.01323e-06
1.01757e-06
1.05222e-06
1.08956e-06
1.12578e-06
1.17139e-06
1.19198e-06
9.26459e-07
9.215e-07
9.20938e-07
9.20565e-07
9.20302e-07
9.20103e-07
9.19946e-07
9.19831e-07
9.19752e-07
9.19699e-07
9.19677e-07
9.19683e-07
9.1971e-07
9.19765e-07
9.19852e-07
9.19967e-07
9.20107e-07
9.20271e-07
9.20459e-07
9.20667e-07
9.20891e-07
9.21132e-07
9.21389e-07
9.21661e-07
9.21944e-07
9.22239e-07
9.22546e-07
9.22865e-07
9.23192e-07
9.23528e-07
9.23873e-07
9.24227e-07
9.24593e-07
9.24971e-07
9.25363e-07
9.25769e-07
9.26191e-07
9.26628e-07
9.27082e-07
9.27555e-07
9.28049e-07
9.28565e-07
9.29106e-07
9.29674e-07
9.30268e-07
9.30892e-07
9.31545e-07
9.32223e-07
9.32919e-07
9.3362e-07
9.34312e-07
9.34987e-07
9.35637e-07
9.3626e-07
9.36857e-07
9.37434e-07
9.38e-07
9.38565e-07
9.39132e-07
9.39702e-07
9.40278e-07
9.40865e-07
9.41483e-07
9.42155e-07
9.42893e-07
9.43699e-07
9.44573e-07
9.45518e-07
9.46543e-07
9.4765e-07
9.48846e-07
9.50188e-07
9.51815e-07
9.54141e-07
9.57202e-07
9.60351e-07
9.64201e-07
9.82256e-07
1.00607e-06
1.01041e-06
1.01876e-06
1.05503e-06
1.08794e-06
1.11717e-06
1.15536e-06
1.19604e-06
9.3389e-07
9.26298e-07
9.25614e-07
9.25107e-07
9.24695e-07
9.24337e-07
9.24018e-07
9.23733e-07
9.23484e-07
9.23259e-07
9.23059e-07
9.22885e-07
9.22732e-07
9.22607e-07
9.22511e-07
9.2244e-07
9.22398e-07
9.22383e-07
9.22392e-07
9.22422e-07
9.22471e-07
9.22541e-07
9.22631e-07
9.22742e-07
9.22869e-07
9.23012e-07
9.23171e-07
9.23347e-07
9.23536e-07
9.23741e-07
9.2396e-07
9.24194e-07
9.24446e-07
9.24716e-07
9.25006e-07
9.25316e-07
9.25647e-07
9.26001e-07
9.26378e-07
9.2678e-07
9.27209e-07
9.27668e-07
9.28157e-07
9.28678e-07
9.29234e-07
9.29827e-07
9.30454e-07
9.31111e-07
9.31792e-07
9.32482e-07
9.3317e-07
9.33841e-07
9.3449e-07
9.35115e-07
9.35714e-07
9.36294e-07
9.36868e-07
9.37444e-07
9.38026e-07
9.38617e-07
9.39218e-07
9.39833e-07
9.40483e-07
9.4119e-07
9.41967e-07
9.42817e-07
9.4374e-07
9.44738e-07
9.45823e-07
9.46997e-07
9.48273e-07
9.49709e-07
9.51432e-07
9.53886e-07
9.56864e-07
9.59954e-07
9.64347e-07
9.87475e-07
1.00388e-06
1.00732e-06
1.01889e-06
1.05707e-06
1.08645e-06
1.11049e-06
1.13766e-06
1.1863e-06
9.35685e-07
9.27218e-07
9.26563e-07
9.26081e-07
9.25684e-07
9.25334e-07
9.25016e-07
9.24724e-07
9.24455e-07
9.24208e-07
9.23981e-07
9.23772e-07
9.2358e-07
9.23409e-07
9.23265e-07
9.23141e-07
9.2304e-07
9.22964e-07
9.22909e-07
9.22873e-07
9.22857e-07
9.22859e-07
9.22881e-07
9.22923e-07
9.22982e-07
9.23057e-07
9.23151e-07
9.2326e-07
9.23385e-07
9.23527e-07
9.23686e-07
9.23864e-07
9.2406e-07
9.24278e-07
9.24519e-07
9.24783e-07
9.25072e-07
9.25387e-07
9.25727e-07
9.26095e-07
9.26497e-07
9.26932e-07
9.27401e-07
9.27907e-07
9.28449e-07
9.29033e-07
9.29658e-07
9.30315e-07
9.30997e-07
9.31694e-07
9.32389e-07
9.33069e-07
9.3373e-07
9.34364e-07
9.34974e-07
9.35568e-07
9.36156e-07
9.36748e-07
9.37348e-07
9.37961e-07
9.38587e-07
9.39229e-07
9.39907e-07
9.40641e-07
9.41445e-07
9.42322e-07
9.43274e-07
9.44306e-07
9.45427e-07
9.46642e-07
9.47969e-07
9.49465e-07
9.51256e-07
9.53829e-07
9.56579e-07
9.5954e-07
9.65922e-07
9.91789e-07
1.00243e-06
1.00494e-06
1.01981e-06
1.05748e-06
1.0848e-06
1.10417e-06
1.12288e-06
1.17081e-06
9.34168e-07
9.25595e-07
9.25018e-07
9.24623e-07
9.24313e-07
9.24044e-07
9.238e-07
9.23577e-07
9.23372e-07
9.23185e-07
9.23012e-07
9.22851e-07
9.22706e-07
9.22578e-07
9.22466e-07
9.22374e-07
9.22303e-07
9.22251e-07
9.22215e-07
9.22198e-07
9.22196e-07
9.22209e-07
9.22242e-07
9.22292e-07
9.22357e-07
9.22436e-07
9.22532e-07
9.22645e-07
9.22771e-07
9.22914e-07
9.23073e-07
9.2325e-07
9.23447e-07
9.23665e-07
9.23907e-07
9.24172e-07
9.24462e-07
9.24779e-07
9.25122e-07
9.25495e-07
9.25903e-07
9.26345e-07
9.26821e-07
9.27335e-07
9.27888e-07
9.28484e-07
9.29122e-07
9.29795e-07
9.30495e-07
9.3121e-07
9.31922e-07
9.32618e-07
9.33294e-07
9.33944e-07
9.34567e-07
9.35175e-07
9.35779e-07
9.36387e-07
9.37004e-07
9.37635e-07
9.38279e-07
9.38941e-07
9.39636e-07
9.40386e-07
9.41206e-07
9.42098e-07
9.4307e-07
9.44121e-07
9.45263e-07
9.46503e-07
9.47865e-07
9.49406e-07
9.51251e-07
9.53908e-07
9.56413e-07
9.59368e-07
9.68586e-07
9.92499e-07
1.00089e-06
1.00378e-06
1.02165e-06
1.05385e-06
1.08214e-06
1.09851e-06
1.11191e-06
1.15681e-06
9.31591e-07
9.23178e-07
9.22662e-07
9.22346e-07
9.22115e-07
9.21924e-07
9.21756e-07
9.21609e-07
9.2148e-07
9.21363e-07
9.21258e-07
9.21163e-07
9.21077e-07
9.21008e-07
9.20957e-07
9.20922e-07
9.20905e-07
9.20906e-07
9.20921e-07
9.2095e-07
9.20994e-07
9.21052e-07
9.21126e-07
9.21216e-07
9.2132e-07
9.21436e-07
9.21567e-07
9.21714e-07
9.21872e-07
9.22045e-07
9.22236e-07
9.22443e-07
9.22666e-07
9.22912e-07
9.23181e-07
9.23472e-07
9.23788e-07
9.24129e-07
9.24497e-07
9.24894e-07
9.25326e-07
9.25792e-07
9.26292e-07
9.26829e-07
9.27406e-07
9.28025e-07
9.28685e-07
9.29382e-07
9.30104e-07
9.3084e-07
9.31573e-07
9.32288e-07
9.32979e-07
9.33644e-07
9.34282e-07
9.34903e-07
9.35519e-07
9.36139e-07
9.36769e-07
9.37413e-07
9.38071e-07
9.38747e-07
9.39454e-07
9.40215e-07
9.41045e-07
9.41951e-07
9.42936e-07
9.44005e-07
9.45169e-07
9.46434e-07
9.47831e-07
9.49416e-07
9.51326e-07
9.53974e-07
9.56247e-07
9.59498e-07
9.71203e-07
9.90446e-07
9.99576e-07
1.0038e-06
1.02298e-06
1.05005e-06
1.0793e-06
1.09374e-06
1.10369e-06
1.14544e-06
9.29346e-07
9.21128e-07
9.20636e-07
9.20362e-07
9.20177e-07
9.2003e-07
9.19906e-07
9.19805e-07
9.1972e-07
9.19646e-07
9.19584e-07
9.19531e-07
9.19487e-07
9.1946e-07
9.19449e-07
9.19454e-07
9.19479e-07
9.19518e-07
9.19571e-07
9.1964e-07
9.1972e-07
9.19814e-07
9.19924e-07
9.20048e-07
9.20186e-07
9.20336e-07
9.205e-07
9.20678e-07
9.20869e-07
9.21075e-07
9.21295e-07
9.21532e-07
9.21784e-07
9.22057e-07
9.22353e-07
9.22672e-07
9.23015e-07
9.23383e-07
9.23778e-07
9.24202e-07
9.24659e-07
9.25151e-07
9.25676e-07
9.26239e-07
9.26841e-07
9.27486e-07
9.28171e-07
9.2889e-07
9.29634e-07
9.30393e-07
9.31146e-07
9.3188e-07
9.32589e-07
9.33268e-07
9.33919e-07
9.34552e-07
9.35179e-07
9.35811e-07
9.36454e-07
9.3711e-07
9.37781e-07
9.38471e-07
9.39193e-07
9.39967e-07
9.40813e-07
9.41736e-07
9.42741e-07
9.43837e-07
9.4503e-07
9.46331e-07
9.4777e-07
9.49412e-07
9.51404e-07
9.53936e-07
9.56026e-07
9.59927e-07
9.73246e-07
9.87999e-07
9.98507e-07
1.00419e-06
1.02457e-06
1.04833e-06
1.07634e-06
1.0879e-06
1.09696e-06
1.135e-06
9.27794e-07
9.19753e-07
9.19254e-07
9.18989e-07
9.18814e-07
9.18676e-07
9.18561e-07
9.18472e-07
9.18402e-07
9.18341e-07
9.18291e-07
9.18251e-07
9.1822e-07
9.18208e-07
9.1821e-07
9.18228e-07
9.18265e-07
9.1832e-07
9.18388e-07
9.1847e-07
9.18566e-07
9.18678e-07
9.18805e-07
9.18944e-07
9.19098e-07
9.19265e-07
9.19446e-07
9.19639e-07
9.19849e-07
9.20071e-07
9.20308e-07
9.20562e-07
9.20832e-07
9.21123e-07
9.21436e-07
9.21774e-07
9.22137e-07
9.22525e-07
9.22939e-07
9.23385e-07
9.23862e-07
9.24373e-07
9.24919e-07
9.25503e-07
9.26129e-07
9.26796e-07
9.27504e-07
9.28247e-07
9.29014e-07
9.29794e-07
9.30569e-07
9.31322e-07
9.32049e-07
9.32744e-07
9.3341e-07
9.34058e-07
9.34698e-07
9.35346e-07
9.36004e-07
9.36678e-07
9.37367e-07
9.38076e-07
9.38818e-07
9.39613e-07
9.40482e-07
9.41431e-07
9.42468e-07
9.43597e-07
9.44831e-07
9.46177e-07
9.4767e-07
9.4938e-07
9.51476e-07
9.5382e-07
9.55855e-07
9.60624e-07
9.7516e-07
9.86521e-07
9.97628e-07
1.00436e-06
1.02561e-06
1.0467e-06
1.07217e-06
1.08195e-06
1.09145e-06
1.12376e-06
9.26658e-07
9.18763e-07
9.18238e-07
9.17962e-07
9.1778e-07
9.17635e-07
9.17517e-07
9.17421e-07
9.17341e-07
9.17277e-07
9.17225e-07
9.17179e-07
9.17145e-07
9.1713e-07
9.17129e-07
9.17146e-07
9.17182e-07
9.17236e-07
9.17303e-07
9.17387e-07
9.17484e-07
9.17597e-07
9.17726e-07
9.17868e-07
9.18026e-07
9.18199e-07
9.18384e-07
9.18583e-07
9.18798e-07
9.19026e-07
9.19272e-07
9.19534e-07
9.19812e-07
9.20113e-07
9.20438e-07
9.20788e-07
9.21163e-07
9.21563e-07
9.21991e-07
9.22453e-07
9.22948e-07
9.23477e-07
9.24043e-07
9.24649e-07
9.25295e-07
9.25983e-07
9.26713e-07
9.2748e-07
9.28272e-07
9.29075e-07
9.29872e-07
9.30649e-07
9.31395e-07
9.32109e-07
9.32794e-07
9.33459e-07
9.34118e-07
9.34785e-07
9.35465e-07
9.36161e-07
9.36874e-07
9.37608e-07
9.38377e-07
9.392e-07
9.40097e-07
9.4108e-07
9.42155e-07
9.43328e-07
9.44609e-07
9.4601e-07
9.47566e-07
9.49354e-07
9.51561e-07
9.53685e-07
9.55786e-07
9.6207e-07
9.783e-07
9.85867e-07
9.96329e-07
1.00411e-06
1.02531e-06
1.04467e-06
1.06767e-06
1.07617e-06
1.08484e-06
1.11284e-06
9.2553e-07
9.17773e-07
9.17221e-07
9.16932e-07
9.16739e-07
9.16586e-07
9.1646e-07
9.16355e-07
9.16268e-07
9.16195e-07
9.16136e-07
9.16085e-07
9.16045e-07
9.16023e-07
9.16019e-07
9.16032e-07
9.16063e-07
9.16113e-07
9.16179e-07
9.16261e-07
9.16358e-07
9.1647e-07
9.16598e-07
9.1674e-07
9.16899e-07
9.17073e-07
9.1726e-07
9.17463e-07
9.17682e-07
9.17916e-07
9.18166e-07
9.18433e-07
9.18719e-07
9.19029e-07
9.19363e-07
9.19724e-07
9.20111e-07
9.20524e-07
9.20967e-07
9.21444e-07
9.21956e-07
9.22504e-07
9.2309e-07
9.23716e-07
9.24385e-07
9.25098e-07
9.25854e-07
9.26646e-07
9.27465e-07
9.28294e-07
9.29117e-07
9.29918e-07
9.30688e-07
9.31425e-07
9.32131e-07
9.32818e-07
9.33499e-07
9.34189e-07
9.34893e-07
9.35616e-07
9.36357e-07
9.37122e-07
9.37922e-07
9.38778e-07
9.39711e-07
9.40731e-07
9.41847e-07
9.43067e-07
9.44402e-07
9.45863e-07
9.47491e-07
9.49367e-07
9.51631e-07
9.5356e-07
9.55808e-07
9.6421e-07
9.81304e-07
9.8565e-07
9.94971e-07
1.00351e-06
1.02688e-06
1.04277e-06
1.06319e-06
1.06947e-06
1.07891e-06
1.10259e-06
9.24245e-07
9.16603e-07
9.1603e-07
9.15732e-07
9.15536e-07
9.15378e-07
9.15246e-07
9.15137e-07
9.15047e-07
9.14971e-07
9.14908e-07
9.14856e-07
9.14814e-07
9.14789e-07
9.14782e-07
9.14794e-07
9.14827e-07
9.14877e-07
9.14944e-07
9.15028e-07
9.15126e-07
9.15241e-07
9.15371e-07
9.15517e-07
9.15681e-07
9.15859e-07
9.16051e-07
9.16258e-07
9.16485e-07
9.16726e-07
9.16983e-07
9.1726e-07
9.17557e-07
9.17877e-07
9.18223e-07
9.18596e-07
9.18996e-07
9.19425e-07
9.19886e-07
9.2038e-07
9.20911e-07
9.21481e-07
9.22089e-07
9.2274e-07
9.23435e-07
9.24174e-07
9.24957e-07
9.25777e-07
9.26624e-07
9.27483e-07
9.28335e-07
9.29165e-07
9.29961e-07
9.30722e-07
9.31452e-07
9.32162e-07
9.32868e-07
9.33585e-07
9.34318e-07
9.35069e-07
9.35841e-07
9.36639e-07
9.37474e-07
9.38366e-07
9.39336e-07
9.40398e-07
9.41563e-07
9.42836e-07
9.4423e-07
9.45757e-07
9.47462e-07
9.49439e-07
9.51659e-07
9.53454e-07
9.5591e-07
9.66315e-07
9.82169e-07
9.85427e-07
9.94082e-07
1.00374e-06
1.0267e-06
1.03995e-06
1.05735e-06
1.06356e-06
1.07257e-06
1.09196e-06
9.22827e-07
9.15277e-07
9.14682e-07
9.14381e-07
9.1418e-07
9.1402e-07
9.13889e-07
9.1378e-07
9.1369e-07
9.13615e-07
9.13553e-07
9.13503e-07
9.13463e-07
9.13438e-07
9.13434e-07
9.13449e-07
9.13482e-07
9.13535e-07
9.13607e-07
9.13696e-07
9.13799e-07
9.13917e-07
9.14053e-07
9.14207e-07
9.14377e-07
9.14562e-07
9.14762e-07
9.14979e-07
9.15214e-07
9.15464e-07
9.15731e-07
9.16019e-07
9.16328e-07
9.16662e-07
9.17022e-07
9.17411e-07
9.17829e-07
9.18276e-07
9.18756e-07
9.19272e-07
9.19826e-07
9.20418e-07
9.21053e-07
9.2173e-07
9.22451e-07
9.2322e-07
9.24033e-07
9.24884e-07
9.25764e-07
9.26654e-07
9.27536e-07
9.28395e-07
9.29221e-07
9.3001e-07
9.30765e-07
9.31501e-07
9.32234e-07
9.32978e-07
9.3374e-07
9.34525e-07
9.35331e-07
9.36165e-07
9.37037e-07
9.37969e-07
9.38982e-07
9.40091e-07
9.41305e-07
9.42637e-07
9.44095e-07
9.45695e-07
9.47484e-07
9.49579e-07
9.51665e-07
9.5343e-07
9.56095e-07
9.68089e-07
9.81533e-07
9.85361e-07
9.93795e-07
1.00403e-06
1.02741e-06
1.03683e-06
1.05119e-06
1.05624e-06
1.06428e-06
1.07934e-06
9.21355e-07
9.13866e-07
9.1325e-07
9.12944e-07
9.1274e-07
9.12582e-07
9.12453e-07
9.12342e-07
9.12252e-07
9.12178e-07
9.12116e-07
9.12069e-07
9.12032e-07
9.12011e-07
9.12008e-07
9.12026e-07
9.12064e-07
9.12122e-07
9.12199e-07
9.12292e-07
9.12401e-07
9.12527e-07
9.1267e-07
9.1283e-07
9.13008e-07
9.13202e-07
9.13412e-07
9.13639e-07
9.13883e-07
9.14144e-07
9.14424e-07
9.14724e-07
9.15047e-07
9.15396e-07
9.15773e-07
9.16179e-07
9.16615e-07
9.17083e-07
9.17584e-07
9.18122e-07
9.18701e-07
9.19319e-07
9.19981e-07
9.20686e-07
9.21438e-07
9.22239e-07
9.23084e-07
9.23968e-07
9.2488e-07
9.25804e-07
9.26719e-07
9.2761e-07
9.28466e-07
9.29284e-07
9.30067e-07
9.30831e-07
9.31594e-07
9.32369e-07
9.33163e-07
9.33982e-07
9.34826e-07
9.35699e-07
9.36613e-07
9.37589e-07
9.38648e-07
9.39808e-07
9.4108e-07
9.42474e-07
9.44003e-07
9.45684e-07
9.47567e-07
9.49785e-07
9.51677e-07
9.53516e-07
9.56376e-07
9.69607e-07
9.8067e-07
9.8538e-07
9.93756e-07
1.00449e-06
1.02663e-06
1.03407e-06
1.04463e-06
1.0481e-06
1.05639e-06
1.06879e-06
9.19844e-07
9.12409e-07
9.11768e-07
9.11458e-07
9.11252e-07
9.11095e-07
9.10964e-07
9.10853e-07
9.10764e-07
9.10693e-07
9.10633e-07
9.10586e-07
9.10552e-07
9.10534e-07
9.10535e-07
9.10555e-07
9.10597e-07
9.1066e-07
9.10742e-07
9.1084e-07
9.10955e-07
9.11087e-07
9.11237e-07
9.11406e-07
9.11592e-07
9.11794e-07
9.12013e-07
9.1225e-07
9.12506e-07
9.1278e-07
9.13073e-07
9.13386e-07
9.13723e-07
9.14088e-07
9.14483e-07
9.14908e-07
9.15363e-07
9.15853e-07
9.16378e-07
9.1694e-07
9.17544e-07
9.18191e-07
9.18882e-07
9.19616e-07
9.204e-07
9.21234e-07
9.22113e-07
9.23031e-07
9.23979e-07
9.24938e-07
9.25889e-07
9.26812e-07
9.27701e-07
9.28551e-07
9.29365e-07
9.3016e-07
9.30953e-07
9.3176e-07
9.32591e-07
9.33447e-07
9.34331e-07
9.35247e-07
9.36207e-07
9.37231e-07
9.38342e-07
9.39557e-07
9.40892e-07
9.42356e-07
9.43964e-07
9.45734e-07
9.4772e-07
9.5002e-07
9.51733e-07
9.53721e-07
9.5677e-07
9.71069e-07
9.80108e-07
9.85235e-07
9.93753e-07
1.00507e-06
1.02541e-06
1.02974e-06
1.03726e-06
1.0404e-06
1.04909e-06
1.05947e-06
9.18327e-07
9.1092e-07
9.10251e-07
9.09934e-07
9.09727e-07
9.09569e-07
9.09437e-07
9.09328e-07
9.09241e-07
9.09169e-07
9.0911e-07
9.09064e-07
9.09031e-07
9.09016e-07
9.09021e-07
9.09044e-07
9.09091e-07
9.09159e-07
9.09246e-07
9.0935e-07
9.09471e-07
9.0961e-07
9.09766e-07
9.09943e-07
9.10138e-07
9.10348e-07
9.10579e-07
9.10828e-07
9.11093e-07
9.11378e-07
9.11685e-07
9.12014e-07
9.12368e-07
9.12748e-07
9.1316e-07
9.13605e-07
9.14083e-07
9.14595e-07
9.15144e-07
9.15732e-07
9.16364e-07
9.17041e-07
9.17762e-07
9.18529e-07
9.19346e-07
9.20214e-07
9.21128e-07
9.22084e-07
9.23069e-07
9.24065e-07
9.25052e-07
9.26011e-07
9.26934e-07
9.27817e-07
9.28664e-07
9.29491e-07
9.30317e-07
9.3116e-07
9.32028e-07
9.32925e-07
9.33854e-07
9.34817e-07
9.35827e-07
9.36903e-07
9.3807e-07
9.39348e-07
9.4075e-07
9.42291e-07
9.43986e-07
9.45854e-07
9.47957e-07
9.5026e-07
9.51887e-07
9.54043e-07
9.5731e-07
9.72581e-07
9.80027e-07
9.85342e-07
9.93872e-07
1.00569e-06
1.02335e-06
1.02546e-06
1.03083e-06
1.03342e-06
1.04237e-06
1.04948e-06
9.16781e-07
9.09394e-07
9.08697e-07
9.08376e-07
9.08166e-07
9.08008e-07
9.07877e-07
9.07768e-07
9.07682e-07
9.07611e-07
9.07553e-07
9.0751e-07
9.07478e-07
9.07465e-07
9.07471e-07
9.075e-07
9.07551e-07
9.07624e-07
9.07717e-07
9.07826e-07
9.07953e-07
9.08099e-07
9.08264e-07
9.08449e-07
9.08652e-07
9.08873e-07
9.09114e-07
9.09373e-07
9.09652e-07
9.09951e-07
9.10272e-07
9.10617e-07
9.10987e-07
9.11386e-07
9.11817e-07
9.12282e-07
9.12782e-07
9.13318e-07
9.13893e-07
9.14509e-07
9.1517e-07
9.15876e-07
9.16629e-07
9.1743e-07
9.18283e-07
9.19187e-07
9.20139e-07
9.21133e-07
9.22156e-07
9.2319e-07
9.24216e-07
9.25213e-07
9.26172e-07
9.2709e-07
9.27972e-07
9.28833e-07
9.29696e-07
9.30576e-07
9.31485e-07
9.32427e-07
9.33402e-07
9.34416e-07
9.3548e-07
9.36613e-07
9.37842e-07
9.39188e-07
9.40666e-07
9.42292e-07
9.44081e-07
9.46055e-07
9.48287e-07
9.50526e-07
9.52173e-07
9.54456e-07
9.57966e-07
9.74057e-07
9.80321e-07
9.85723e-07
9.94065e-07
1.00601e-06
1.02165e-06
1.02078e-06
1.02467e-06
1.02735e-06
1.03671e-06
1.04065e-06
9.15227e-07
9.07843e-07
9.07114e-07
9.06787e-07
9.06577e-07
9.06417e-07
9.06284e-07
9.06177e-07
9.06093e-07
9.06025e-07
9.05967e-07
9.05924e-07
9.05895e-07
9.05887e-07
9.05897e-07
9.05929e-07
9.05985e-07
9.06063e-07
9.06161e-07
9.06276e-07
9.06409e-07
9.06562e-07
9.06736e-07
9.0693e-07
9.07143e-07
9.07375e-07
9.07627e-07
9.07898e-07
9.08189e-07
9.08503e-07
9.0884e-07
9.092e-07
9.09587e-07
9.10005e-07
9.10457e-07
9.10944e-07
9.11469e-07
9.12031e-07
9.12632e-07
9.13277e-07
9.13968e-07
9.14707e-07
9.15494e-07
9.16331e-07
9.17219e-07
9.18161e-07
9.19152e-07
9.20186e-07
9.2125e-07
9.22325e-07
9.2339e-07
9.24426e-07
9.25423e-07
9.26378e-07
9.27297e-07
9.28196e-07
9.29096e-07
9.30016e-07
9.30968e-07
9.31957e-07
9.32984e-07
9.34053e-07
9.35176e-07
9.36372e-07
9.37668e-07
9.39087e-07
9.40648e-07
9.42366e-07
9.4426e-07
9.46351e-07
9.48732e-07
9.50856e-07
9.52597e-07
9.54977e-07
9.58706e-07
9.758e-07
9.80764e-07
9.86138e-07
9.94194e-07
1.00645e-06
1.01948e-06
1.01643e-06
1.01891e-06
1.02184e-06
1.02865e-06
1.03237e-06
9.13653e-07
9.06267e-07
9.05508e-07
9.05175e-07
9.04964e-07
9.04803e-07
9.04672e-07
9.04565e-07
9.04482e-07
9.04414e-07
9.0436e-07
9.0432e-07
9.04294e-07
9.04287e-07
9.043e-07
9.04337e-07
9.04398e-07
9.04482e-07
9.04584e-07
9.04707e-07
9.04848e-07
9.0501e-07
9.05193e-07
9.05395e-07
9.05618e-07
9.05861e-07
9.06125e-07
9.06408e-07
9.06714e-07
9.07044e-07
9.07396e-07
9.07773e-07
9.08179e-07
9.08617e-07
9.0909e-07
9.09602e-07
9.10151e-07
9.10739e-07
9.11368e-07
9.12044e-07
9.12767e-07
9.13539e-07
9.14361e-07
9.15235e-07
9.16162e-07
9.17142e-07
9.18174e-07
9.19248e-07
9.20353e-07
9.2147e-07
9.22577e-07
9.23654e-07
9.24692e-07
9.25687e-07
9.26645e-07
9.27584e-07
9.28524e-07
9.29487e-07
9.30485e-07
9.31525e-07
9.32607e-07
9.33735e-07
9.34921e-07
9.36184e-07
9.37554e-07
9.39055e-07
9.40706e-07
9.42525e-07
9.44533e-07
9.46752e-07
9.49273e-07
9.51283e-07
9.5318e-07
9.55632e-07
9.59549e-07
9.77599e-07
9.81137e-07
9.86496e-07
9.94527e-07
1.00682e-06
1.01871e-06
1.01228e-06
1.01352e-06
1.0169e-06
1.02371e-06
1.0264e-06
9.12079e-07
9.0468e-07
9.03886e-07
9.03548e-07
9.03336e-07
9.03174e-07
9.03043e-07
9.02939e-07
9.02857e-07
9.02792e-07
9.02739e-07
9.02699e-07
9.02676e-07
9.02673e-07
9.02692e-07
9.02734e-07
9.02799e-07
9.02888e-07
9.02997e-07
9.03127e-07
9.03276e-07
9.03447e-07
9.03639e-07
9.03852e-07
9.04085e-07
9.04339e-07
9.04615e-07
9.04913e-07
9.05233e-07
9.05578e-07
9.05947e-07
9.06343e-07
9.0677e-07
9.07229e-07
9.07725e-07
9.0826e-07
9.08835e-07
9.09451e-07
9.10109e-07
9.10816e-07
9.11574e-07
9.1238e-07
9.13238e-07
9.1415e-07
9.15116e-07
9.16136e-07
9.1721e-07
9.18327e-07
9.19475e-07
9.20635e-07
9.21784e-07
9.22906e-07
9.23986e-07
9.25022e-07
9.26022e-07
9.27002e-07
9.27985e-07
9.28994e-07
9.30042e-07
9.31135e-07
9.32275e-07
9.33468e-07
9.34723e-07
9.3606e-07
9.37511e-07
9.39101e-07
9.4085e-07
9.4278e-07
9.44913e-07
9.47275e-07
9.49891e-07
9.51823e-07
9.53936e-07
9.56458e-07
9.60491e-07
9.79658e-07
9.81614e-07
9.86589e-07
9.9496e-07
1.00767e-06
1.01792e-06
1.00938e-06
1.00919e-06
1.01268e-06
1.01818e-06
1.0215e-06
9.10507e-07
9.03085e-07
9.02255e-07
9.01912e-07
9.017e-07
9.01538e-07
9.01409e-07
9.01305e-07
9.01225e-07
9.01161e-07
9.01112e-07
9.01076e-07
9.01056e-07
9.01056e-07
9.01077e-07
9.01123e-07
9.01194e-07
9.0129e-07
9.01407e-07
9.01544e-07
9.01701e-07
9.0188e-07
9.02082e-07
9.02306e-07
9.0255e-07
9.02817e-07
9.03106e-07
9.03418e-07
9.03754e-07
9.04116e-07
9.04503e-07
9.04917e-07
9.05365e-07
9.05847e-07
9.06367e-07
9.06926e-07
9.07528e-07
9.08173e-07
9.08863e-07
9.09603e-07
9.10394e-07
9.11237e-07
9.12132e-07
9.13083e-07
9.14089e-07
9.15151e-07
9.16267e-07
9.17427e-07
9.18619e-07
9.19823e-07
9.21018e-07
9.22184e-07
9.23309e-07
9.2439e-07
9.25434e-07
9.26458e-07
9.27487e-07
9.28544e-07
9.29644e-07
9.30795e-07
9.31998e-07
9.3326e-07
9.3459e-07
9.36009e-07
9.37547e-07
9.39234e-07
9.41092e-07
9.43143e-07
9.45412e-07
9.47934e-07
9.50595e-07
9.52509e-07
9.54862e-07
9.57462e-07
9.61571e-07
9.81832e-07
9.81863e-07
9.86606e-07
9.95337e-07
1.00868e-06
1.01848e-06
1.00711e-06
1.00543e-06
1.00866e-06
1.01399e-06
1.01723e-06
9.08933e-07
9.01492e-07
9.00626e-07
9.00276e-07
9.00061e-07
8.999e-07
8.99772e-07
8.99669e-07
8.99591e-07
8.9953e-07
8.99482e-07
8.9945e-07
8.99433e-07
8.99436e-07
8.99462e-07
8.99514e-07
8.99592e-07
8.99693e-07
8.99817e-07
8.99963e-07
9.0013e-07
9.00318e-07
9.00529e-07
9.00764e-07
9.01021e-07
9.013e-07
9.01603e-07
9.01931e-07
9.02284e-07
9.02662e-07
9.03068e-07
9.03503e-07
9.03971e-07
9.04477e-07
9.05022e-07
9.05607e-07
9.06237e-07
9.06913e-07
9.07635e-07
9.08408e-07
9.09233e-07
9.10112e-07
9.11047e-07
9.12038e-07
9.13085e-07
9.1419e-07
9.1535e-07
9.16554e-07
9.1779e-07
9.19041e-07
9.20283e-07
9.21496e-07
9.22668e-07
9.23796e-07
9.24885e-07
9.25956e-07
9.27034e-07
9.28142e-07
9.29299e-07
9.30512e-07
9.31783e-07
9.3312e-07
9.34531e-07
9.36037e-07
9.37671e-07
9.39465e-07
9.41441e-07
9.43626e-07
9.46045e-07
9.48745e-07
9.51418e-07
9.53386e-07
9.56003e-07
9.58646e-07
9.62838e-07
9.83718e-07
9.82236e-07
9.86664e-07
9.95651e-07
1.00981e-06
1.01932e-06
1.00498e-06
1.00225e-06
1.00541e-06
1.01032e-06
1.01408e-06
9.07381e-07
8.99902e-07
8.98999e-07
8.98641e-07
8.98426e-07
8.98265e-07
8.98139e-07
8.98039e-07
8.97963e-07
8.97904e-07
8.97859e-07
8.9783e-07
8.97816e-07
8.97823e-07
8.97854e-07
8.97912e-07
8.97995e-07
8.98104e-07
8.98237e-07
8.9839e-07
8.98566e-07
8.98765e-07
8.98987e-07
8.99233e-07
8.99502e-07
8.99795e-07
9.00113e-07
9.00456e-07
9.00825e-07
9.01222e-07
9.01648e-07
9.02104e-07
9.02594e-07
9.03124e-07
9.03695e-07
9.04308e-07
9.04967e-07
9.05673e-07
9.06427e-07
9.07234e-07
9.08095e-07
9.09013e-07
9.09987e-07
9.11019e-07
9.12108e-07
9.13257e-07
9.14461e-07
9.15711e-07
9.16994e-07
9.18292e-07
9.19583e-07
9.20845e-07
9.22065e-07
9.23242e-07
9.24381e-07
9.25503e-07
9.26632e-07
9.27796e-07
9.29013e-07
9.30291e-07
9.31635e-07
9.33052e-07
9.34551e-07
9.36155e-07
9.37895e-07
9.39805e-07
9.41911e-07
9.44241e-07
9.46825e-07
9.49721e-07
9.52393e-07
9.54489e-07
9.57368e-07
9.60059e-07
9.64309e-07
9.858e-07
9.82853e-07
9.86631e-07
9.95993e-07
1.01109e-06
1.02021e-06
1.00322e-06
9.99273e-07
1.00276e-06
1.00729e-06
1.01147e-06
9.05829e-07
8.98327e-07
8.97384e-07
8.97017e-07
8.96801e-07
8.9664e-07
8.96515e-07
8.96417e-07
8.96343e-07
8.96287e-07
8.96246e-07
8.96221e-07
8.96211e-07
8.96222e-07
8.96259e-07
8.96323e-07
8.96412e-07
8.96529e-07
8.96669e-07
8.96832e-07
8.97017e-07
8.97226e-07
8.9746e-07
8.97718e-07
8.98001e-07
8.98308e-07
8.98641e-07
8.99001e-07
8.99388e-07
8.99803e-07
9.00248e-07
9.00726e-07
9.01241e-07
9.01795e-07
9.02393e-07
9.03034e-07
9.03723e-07
9.0446e-07
9.05248e-07
9.0609e-07
9.06988e-07
9.07943e-07
9.08958e-07
9.10032e-07
9.11165e-07
9.12358e-07
9.13607e-07
9.14903e-07
9.16234e-07
9.17582e-07
9.18922e-07
9.20235e-07
9.21508e-07
9.22737e-07
9.23928e-07
9.25103e-07
9.26287e-07
9.2751e-07
9.2879e-07
9.30139e-07
9.31563e-07
9.33067e-07
9.34663e-07
9.36371e-07
9.38227e-07
9.40264e-07
9.42512e-07
9.45003e-07
9.47771e-07
9.50855e-07
9.53549e-07
9.5582e-07
9.58938e-07
9.61692e-07
9.66006e-07
9.87428e-07
9.83776e-07
9.86607e-07
9.96664e-07
1.01282e-06
1.02126e-06
1.00103e-06
9.96852e-07
1.00056e-06
1.00521e-06
1.0097e-06
9.04302e-07
8.96766e-07
8.95783e-07
8.95405e-07
8.95189e-07
8.95031e-07
8.94906e-07
8.94811e-07
8.94739e-07
8.94685e-07
8.94648e-07
8.94628e-07
8.94623e-07
8.94639e-07
8.94681e-07
8.94751e-07
8.94848e-07
8.94972e-07
8.95121e-07
8.95293e-07
8.95489e-07
8.95708e-07
8.95953e-07
8.96224e-07
8.96521e-07
8.96843e-07
8.97192e-07
8.97569e-07
8.97974e-07
8.98408e-07
8.98875e-07
8.99377e-07
8.99914e-07
9.00494e-07
9.01118e-07
9.01789e-07
9.02508e-07
9.03278e-07
9.04099e-07
9.04976e-07
9.05911e-07
9.06907e-07
9.07963e-07
9.09079e-07
9.10256e-07
9.11494e-07
9.12789e-07
9.14133e-07
9.15513e-07
9.16911e-07
9.18305e-07
9.19672e-07
9.20998e-07
9.22282e-07
9.2353e-07
9.24762e-07
9.26007e-07
9.27292e-07
9.28641e-07
9.30066e-07
9.31575e-07
9.33173e-07
9.34872e-07
9.36696e-07
9.38677e-07
9.40854e-07
9.4326e-07
9.45927e-07
9.48895e-07
9.5214e-07
9.54896e-07
9.57393e-07
9.60725e-07
9.63559e-07
9.67731e-07
9.88807e-07
9.85138e-07
9.86683e-07
9.97539e-07
1.01471e-06
1.02159e-06
9.99345e-07
9.94888e-07
9.98906e-07
1.00365e-06
1.00891e-06
9.02792e-07
8.95222e-07
8.942e-07
8.93814e-07
8.93596e-07
8.93439e-07
8.93317e-07
8.93223e-07
8.93155e-07
8.93105e-07
8.93072e-07
8.93056e-07
8.93056e-07
8.93077e-07
8.93124e-07
8.932e-07
8.93305e-07
8.93438e-07
8.93596e-07
8.93778e-07
8.93983e-07
8.94213e-07
8.94471e-07
8.94756e-07
8.95067e-07
8.95406e-07
8.95771e-07
8.96165e-07
8.96589e-07
8.97044e-07
8.97533e-07
8.98057e-07
8.9862e-07
8.99225e-07
8.99877e-07
9.00577e-07
9.01328e-07
9.02129e-07
9.02985e-07
9.03898e-07
9.04872e-07
9.05908e-07
9.07005e-07
9.08164e-07
9.09385e-07
9.10669e-07
9.12011e-07
9.13404e-07
9.14834e-07
9.16285e-07
9.17733e-07
9.19157e-07
9.20541e-07
9.21884e-07
9.23192e-07
9.24485e-07
9.25794e-07
9.27147e-07
9.28569e-07
9.30076e-07
9.31677e-07
9.33377e-07
9.3519e-07
9.37138e-07
9.39258e-07
9.41589e-07
9.44166e-07
9.47026e-07
9.50217e-07
9.53593e-07
9.56449e-07
9.59233e-07
9.62685e-07
9.65578e-07
9.69418e-07
9.90038e-07
9.86256e-07
9.8714e-07
9.98493e-07
1.01616e-06
1.02157e-06
9.97778e-07
9.93495e-07
9.97716e-07
1.00265e-06
1.00872e-06
9.01314e-07
8.93699e-07
8.92641e-07
8.92246e-07
8.92028e-07
8.91871e-07
8.9175e-07
8.9166e-07
8.91595e-07
8.91549e-07
8.91522e-07
8.91508e-07
8.91512e-07
8.9154e-07
8.91594e-07
8.91677e-07
8.9179e-07
8.91931e-07
8.92098e-07
8.92291e-07
8.92508e-07
8.9275e-07
8.9302e-07
8.93319e-07
8.93646e-07
8.94e-07
8.94383e-07
8.94794e-07
8.95238e-07
8.95714e-07
8.96225e-07
8.96773e-07
8.9736e-07
8.97991e-07
8.9867e-07
8.99402e-07
9.00184e-07
9.01019e-07
9.01909e-07
9.02859e-07
9.03872e-07
9.04947e-07
9.06086e-07
9.07288e-07
9.08555e-07
9.09886e-07
9.11277e-07
9.12719e-07
9.14201e-07
9.15706e-07
9.17211e-07
9.18693e-07
9.20139e-07
9.21545e-07
9.22917e-07
9.24277e-07
9.25655e-07
9.27081e-07