/*--------------------------------*- C++ -*----------------------------------*\
  =========                 |
  \\      /  F ield         | OpenFOAM: The Open Source CFD Toolbox
   \\    /   O peration     | Website:  https://openfoam.org
    \\  /    A nd           | Version:  9
     \\/     M anipulation  |
\*---------------------------------------------------------------------------*/
FoamFile
{
    format      ascii;
    class       volScalarField;
    location    "750";
    object      omega;
}
// * * * * * * * * * * * * * * * * * * * * * * * * * * * * * * * * * * * * * //

dimensions      [0 0 -1 0 0 0 0];

internalField   nonuniform List<scalar> 
13617
(
31.5196
38.0978
39.382
40.6861
42.009
43.3483
44.7051
46.0813
47.4706
48.8675
50.2764
51.6951
53.119
54.5488
55.9809
57.412
58.8451
60.2751
61.699
63.1151
64.5226
65.9189
67.3026
68.6721
70.0252
71.3591
72.6745
73.9701
75.2441
76.4952
77.7235
78.9269
80.1033
81.2548
82.3808
83.4805
84.5525
85.5964
86.6169
87.6104
88.5774
89.5213
90.4394
91.3322
92.2038
93.0514
93.8778
94.6863
95.4736
96.2425
96.993
97.7275
98.4485
99.1525
99.8426
100.527
101.2
101.862
102.516
103.162
103.806
104.448
105.082
105.716
106.353
106.994
107.639
108.286
108.939
109.601
110.272
110.956
111.649
112.353
113.065
113.787
114.52
115.216
115.958
116.267
116.041
116.439
117.263
118.348
120.048
120.354
35.1154
41.4255
42.7183
44.0209
45.3355
46.6612
47.9973
49.3386
50.6852
52.0387
53.3944
54.7507
56.1061
57.4582
58.8051
60.1421
61.4714
62.7924
64.1004
65.3934
66.6733
67.9351
69.1785
70.4032
71.6056
72.7881
73.947
75.0834
76.1966
77.2833
78.3456
79.384
80.396
81.3806
82.3398
83.2755
84.1861
85.0723
85.9335
86.7727
87.5902
88.3856
89.1584
89.9116
90.6499
91.3674
92.0683
92.7564
93.4299
94.0911
94.7418
95.3812
96.0106
96.6358
97.2547
97.869
98.4797
99.0881
99.6964
100.305
100.914
101.528
102.148
102.774
103.407
104.047
104.698
105.36
106.035
106.723
107.426
108.142
108.874
109.619
110.37
111.138
111.925
112.708
113.71
113.989
113.944
114.724
116.194
116.919
118.772
120.117
41.1646
46.0869
47.3298
48.5736
49.8213
51.0737
52.3266
53.5817
54.8349
56.0799
57.3246
58.5598
59.7845
61.0016
62.2083
63.4008
64.577
65.7372
66.8815
68.0078
69.1145
70.2017
71.2661
72.3083
73.3287
74.3271
75.3003
76.2503
77.1772
78.0782
78.956
79.81
80.6401
81.4462
82.2297
82.9922
83.7329
84.4531
85.1533
85.8356
86.4995
87.1444
87.776
88.3931
88.9973
89.5903
90.1706
90.741
91.3052
91.8626
92.4144
92.9631
93.5088
94.0554
94.603
95.1523
95.7055
96.2621
96.8249
97.3951
97.9704
98.5575
99.1571
99.7663
100.39
101.028
101.681
102.35
103.036
103.741
104.463
105.202
105.959
106.734
107.516
108.321
109.147
110.034
111.145
111.439
111.643
112.9
114.17
114.766
116.223
118.059
50.1712
52.5194
53.6067
54.6883
55.7685
56.8459
57.9226
58.9921
60.052
61.1086
62.1532
63.1861
64.2086
65.2158
66.2073
67.1822
68.1443
69.0893
70.0139
70.9182
71.8049
72.6697
73.5132
74.3373
75.1387
75.9202
76.6794
77.4179
78.1356
78.8336
79.5115
80.1672
80.806
81.4262
82.0249
82.6088
83.178
83.7302
84.2692
84.7944
85.3058
85.8075
86.3005
86.7856
87.2621
87.7311
88.1982
88.6631
89.1244
89.584
90.0458
90.5114
90.9804
91.4514
91.9308
92.4203
92.9174
93.4255
93.9464
94.4786
95.024
95.5842
96.1596
96.7545
97.3687
98.0002
98.6518
99.3235
100.017
100.732
101.465
102.22
102.998
103.792
104.597
105.437
106.293
107.301
108.366
108.711
109.183
110.789
111.809
112.252
113.129
114.908
62.1507
60.7335
61.5368
62.3323
63.1239
63.9169
64.7022
65.4827
66.2557
67.0161
67.7704
68.5165
69.248
69.9667
70.6772
71.3744
72.0537
72.7174
73.3687
74.0057
74.6262
75.2306
75.8178
76.3897
76.945
77.4839
78.0085
78.5193
79.0148
79.4947
79.9599
80.4129
80.8536
81.2814
81.6977
82.1034
82.5012
82.8892
83.2703
83.6451
84.0122
84.3757
84.7375
85.099
85.458
85.8156
86.1766
86.5399
86.9084
87.2817
87.6612
88.0495
88.4486
88.8587
89.2819
89.7168
90.1664
90.6341
91.1184
91.6184
92.1385
92.6773
93.2363
93.8193
94.4262
95.0544
95.7081
96.384
97.0848
97.8133
98.5629
99.3356
100.13
100.946
101.775
102.647
103.53
104.663
105.614
106.044
106.751
108.489
109.337
109.65
110.085
111.381
74.9718
69.4304
69.8682
70.3101
70.7487
71.1887
71.6275
72.0629
72.4976
72.925
73.3471
73.7654
74.175
74.5792
74.9765
75.3649
75.7462
76.1199
76.4859
76.8413
77.1879
77.5256
77.8549
78.1774
78.4901
78.7936
79.0901
79.3798
79.6612
79.9358
80.2028
80.4643
80.7224
80.9745
81.2228
81.4663
81.7082
81.9515
82.1933
82.4335
82.6739
82.9177
83.1654
83.4178
83.6759
83.9405
84.2113
84.4912
84.7822
85.0834
85.3999
85.7285
86.0725
86.4347
86.8131
87.2076
87.6237
88.0619
88.5214
89.0039
89.5095
90.0362
90.5901
91.1724
91.7811
92.4154
93.0774
93.7645
94.4808
95.2247
95.9924
96.7846
97.6011
98.4387
99.2897
100.184
101.097
102.374
103.185
103.674
104.541
106.311
106.991
107.227
107.4
108.056
85.2845
76.5138
76.6154
76.7342
76.8542
76.9815
77.1136
77.2456
77.3766
77.5096
77.6449
77.7807
77.9135
78.0459
78.182
78.3134
78.4415
78.5703
78.6981
78.823
78.9471
79.0689
79.1887
79.3087
79.4258
79.5417
79.6571
79.7711
79.8832
79.9959
80.1099
80.2247
80.3405
80.4584
80.5778
80.6994
80.8264
80.9584
81.0944
81.2348
81.3825
81.5388
81.705
81.8813
82.0655
82.263
82.4739
82.6967
82.9339
83.1873
83.4594
83.7505
84.0626
84.3929
84.7447
85.1196
85.5187
85.9417
86.3904
86.8672
87.3704
87.8979
88.4572
89.045
89.6623
90.3059
90.9786
91.6802
92.4104
93.1691
93.9505
94.7573
95.5875
96.4321
97.2925
98.1932
99.1561
100.517
101.176
101.671
102.651
104.331
104.81
105.003
104.931
105.176
90.9553
80.5506
80.4196
80.3256
80.2379
80.1617
80.0904
80.0229
79.9603
79.9052
79.8546
79.8075
79.7674
79.732
79.6973
79.6668
79.6408
79.6173
79.5959
79.5793
79.5657
79.5531
79.5459
79.5429
79.5411
79.542
79.5483
79.5592
79.5721
79.589
79.612
79.6393
79.6732
79.7126
79.7585
79.8103
79.8706
79.9403
80.0165
80.1025
80.2005
80.3097
80.429
80.563
80.71
80.8724
81.0514
81.2478
81.4614
81.6938
81.9465
82.2202
82.5189
82.8394
83.1824
83.5517
83.9478
84.3696
84.8192
85.2973
85.8038
86.3369
86.901
87.4968
88.121
88.7709
89.4517
90.157
90.89
91.6491
92.4291
93.232
94.0511
94.881
95.7306
96.6087
97.622
98.8989
99.4482
99.9381
100.98
102.323
102.747
102.743
102.484
102.732
92.1623
81.571
81.3269
81.1372
80.9556
80.7867
80.6252
80.4726
80.329
80.192
80.0625
79.9397
79.8215
79.7112
79.6106
79.5149
79.424
79.3392
79.2594
79.1839
79.1156
79.0517
78.9934
78.9427
78.8964
78.8537
78.8185
78.7902
78.7645
78.7459
78.7369
78.734
78.7369
78.7497
78.771
78.7991
78.8377
78.8868
78.9449
79.0137
79.0964
79.1923
79.3012
79.4249
79.5626
79.7175
79.8907
80.0826
80.2929
80.5236
80.7764
81.0504
81.3483
81.6719
82.0188
82.3917
82.7915
83.2173
83.6705
84.1524
84.6633
85.2007
85.7662
86.3589
86.9799
87.6271
88.2994
88.9959
89.7159
90.4578
91.2191
91.9953
92.7853
93.585
94.399
95.23
96.2666
97.3129
97.8237
98.2911
99.3108
100.261
100.612
100.348
100.228
100.329
90.6608
80.6373
80.3605
80.1534
79.9566
79.7705
79.5937
79.4285
79.2715
79.1218
78.982
78.8484
78.7209
78.6031
78.4939
78.3914
78.2961
78.2049
78.12
78.0426
77.9689
77.9014
77.8412
77.787
77.7394
77.6961
77.6606
77.6318
77.6086
77.5928
77.585
77.5847
77.5903
77.605
77.6282
77.6607
77.7033
77.7558
77.8204
77.8953
77.9832
78.0857
78.2006
78.3319
78.4783
78.6416
78.8235
79.0219
79.2396
79.4803
79.7413
80.0235
80.3305
80.6622
81.0163
81.394
81.7981
82.2288
82.686
83.1684
83.677
84.2131
84.7732
85.3579
85.9695
86.6013
87.2555
87.9333
88.6291
89.3429
90.0725
90.8132
91.5625
92.3155
93.0841
93.8675
94.887
95.6628
96.1588
96.5921
97.5727
98.1962
98.2941
98.092
97.8791
97.9691
88.2275
78.9322
78.6564
78.4649
78.2816
78.1065
77.9412
77.7911
77.6509
77.5155
77.3888
77.2692
77.1566
77.0542
76.9577
76.8674
76.7852
76.7084
76.6373
76.5719
76.5117
76.4594
76.4135
76.3718
76.3364
76.307
76.2841
76.267
76.2577
76.2544
76.258
76.2703
76.2891
76.3156
76.351
76.3958
76.451
76.5171
76.5935
76.6816
76.7814
76.8941
77.0212
77.1638
77.323
77.4984
77.692
77.9041
78.133
78.3839
78.6561
78.9483
79.264
79.6028
79.9649
80.3497
80.7579
81.1911
81.6477
82.1296
82.6353
83.1646
83.7171
84.2904
84.8873
85.5035
86.1385
86.792
87.4609
88.1443
88.8378
89.5412
90.2489
90.9577
91.6797
92.4154
93.4155
93.9665
94.3965
94.779
95.7341
95.9881
96.0801
95.6958
95.5096
95.5649
85.8504
77.1507
76.8739
76.6953
76.5285
76.368
76.2196
76.0825
75.9519
75.8322
75.7211
75.6134
75.5143
75.4254
75.3418
75.2642
75.1937
75.1289
75.0684
75.015
74.9669
74.9254
74.8902
74.8592
74.8356
74.8183
74.8057
74.7991
74.7992
74.8057
74.8214
74.8435
74.8713
74.9088
74.9561
75.0122
75.078
75.1534
75.2392
75.3381
75.4501
75.575
75.714
75.8691
76.0386
76.2241
76.4281
76.651
76.8922
77.1526
77.434
77.7374
78.0605
78.4053
78.7743
79.1652
79.5774
80.0137
80.4718
80.9525
81.4552
81.9778
82.5225
83.0862
83.6678
84.2686
84.8866
85.5198
86.1652
86.8213
87.4842
88.1524
88.8206
89.4884
90.1653
90.8819
91.8775
92.2311
92.5515
92.8742
93.741
93.8162
93.7209
93.3199
93.1348
93.0785
83.7241
75.4696
75.1856
75.0136
74.8531
74.701
74.5597
74.4281
74.3045
74.1904
74.0854
73.985
73.8921
73.8081
73.731
73.6594
73.5934
73.5333
73.4788
73.4312
73.3895
73.3529
73.3221
73.2965
73.2777
73.265
73.2575
73.2571
73.2637
73.2769
73.2971
73.3247
73.3591
73.4036
73.4573
73.5206
73.5942
73.677
73.7712
73.8783
73.9992
74.1334
74.2819
74.4453
74.6246
74.8215
75.0355
75.268
75.5199
75.79
76.08
76.3911
76.7228
77.0767
77.4528
77.85
78.2669
78.7059
79.1655
79.647
80.1469
80.6674
81.2071
81.7628
82.3351
82.9223
83.5231
84.1366
84.7598
85.393
86.0305
86.667
87.3029
87.9368
88.5721
89.292
90.2241
90.4314
90.6525
90.9009
91.6789
91.4841
91.4004
90.9489
90.7212
90.5721
81.7213
73.8175
73.5218
73.3517
73.1952
73.0454
72.9045
72.7751
72.654
72.5406
72.4371
72.3396
72.2476
72.1641
72.087
72.0169
71.9548
71.8965
71.8435
71.798
71.7579
71.7238
71.6942
71.6708
71.6549
71.645
71.6396
71.6408
71.6522
71.6692
71.6929
71.7256
71.7657
71.8142
71.8724
71.9414
72.0196
72.1095
72.212
72.3258
72.4539
72.5961
72.753
72.9262
73.1164
73.3225
73.5454
73.7872
74.048
74.3278
74.6293
74.9513
75.2919
75.6532
76.0353
76.439
76.8618
77.3061
77.7704
78.2519
78.7504
79.2695
79.8049
80.3537
80.9159
81.4922
82.0812
82.6801
83.2841
83.8949
84.5075
85.1175
85.7211
86.3187
86.916
87.6445
88.4159
88.5558
88.7106
88.9057
89.5596
89.2801
88.9916
88.5028
88.3318
88.1476
79.7038
72.1122
71.8032
71.6339
71.4764
71.327
71.1878
71.0592
70.9392
70.8272
70.7247
70.6291
70.5379
70.4538
70.3785
70.3097
70.2458
70.1879
70.1371
70.0936
70.0544
70.0205
69.9934
69.9723
69.9583
69.9505
69.9483
69.9533
69.9671
69.987
70.014
70.0504
70.095
70.1494
70.2128
70.2879
70.3737
70.4697
70.5791
70.7029
70.8394
70.9891
71.1559
71.339
71.5377
71.7539
71.9877
72.2402
72.5121
72.8029
73.1137
73.4442
73.7956
74.1666
74.5569
74.9666
75.396
75.8447
76.3111
76.7961
77.296
77.8126
78.3423
78.885
79.4404
80.0055
80.5799
81.1638
81.75
82.3382
82.926
83.5099
84.0842
84.6481
85.209
85.9389
86.5025
86.6163
86.7378
86.9001
87.3554
86.7253
86.6242
86.2066
86.0381
85.7554
77.6395
70.3317
70.0077
69.8394
69.6814
69.5344
69.3989
69.2691
69.1492
69.0377
68.9346
68.8416
68.7529
68.6708
68.5951
68.527
68.4654
68.4083
68.3599
68.3177
68.2806
68.2502
68.2251
68.2057
68.1939
68.1903
68.1917
68.2002
68.217
68.2409
68.273
68.3136
68.3636
68.4241
68.495
68.5758
68.6685
68.7734
68.8906
69.0222
69.1682
69.3283
69.5045
69.6972
69.9069
70.1348
70.3797
70.6426
70.9257
71.2274
71.5487
71.8901
72.251
72.6305
73.0281
73.4445
73.8809
74.3348
74.8034
75.2897
75.7902
76.3038
76.8296
77.3666
77.9132
78.4679
79.0291
79.5953
80.1615
80.7287
81.2944
81.8512
82.3948
82.9269
83.4549
84.174
84.5528
84.6333
84.702
84.7657
85.0503
84.6029
84.3229
83.9374
83.7743
83.4132
75.5189
68.4834
68.1446
67.9773
67.8213
67.6772
67.5418
67.4131
67.2952
67.1876
67.0864
66.9937
66.9079
66.828
66.7553
66.6879
66.6275
66.5738
66.5269
66.4864
66.4521
66.4238
66.4012
66.3864
66.3783
66.3768
66.3822
66.3948
66.4165
66.446
66.4833
66.5293
66.5851
66.6523
66.731
66.8197
66.9197
67.0337
67.1607
67.3005
67.455
67.6264
67.8139
68.016
68.2372
68.4764
68.7316
69.0058
69.3
69.6135
69.9455
70.2963
70.6673
71.0565
71.4621
71.8856
72.3267
72.7839
73.256
73.7421
74.2403
74.7505
75.2714
75.8029
76.3398
76.8821
77.4305
77.9788
78.5258
79.0725
79.6136
80.1436
80.6593
81.1575
81.6518
82.3555
82.5898
82.6069
82.6038
82.6274
82.7645
82.1307
81.9766
81.722
81.5746
81.1696
73.3883
66.5937
66.2374
66.0693
65.9165
65.7756
65.6417
65.5169
65.4014
65.2938
65.1951
65.1042
65.0195
64.943
64.873
64.8079
64.7499
64.6994
64.6555
64.6174
64.5862
64.5612
64.5412
64.5294
64.5253
64.5271
64.5376
64.5562
64.5812
64.615
64.658
64.711
64.7744
64.8476
64.9325
65.0302
65.139
65.2611
65.3974
65.547
65.713
65.8955
66.0931
66.3074
66.5394
66.7887
67.0553
67.3416
67.6469
67.9707
68.3136
68.673
69.053
69.4501
69.863
70.2921
70.7368
71.1971
71.6708
72.1567
72.6532
73.1599
73.6751
74.1979
74.7254
75.2548
75.7854
76.3169
76.8455
77.3704
77.8882
78.3907
78.8788
79.3461
79.8089
80.4874
80.6059
80.5657
80.4773
80.4326
80.4625
79.9019
79.713
79.5183
79.3409
78.9019
71.2439
64.6735
64.2997
64.134
63.9828
63.8453
63.7152
63.5918
63.4789
63.3735
63.2765
63.189
63.1071
63.0314
62.9627
62.9015
62.8466
62.7988
62.7577
62.7223
62.6942
62.6721
62.6563
62.6483
62.6477
62.6549
62.6693
62.6925
62.7235
62.7626
62.812
62.8721
62.9425
63.0231
63.1158
63.2212
63.3383
63.4696
63.6159
63.7765
63.9523
64.1439
64.3523
64.5774
64.8209
65.0824
65.3605
65.6578
65.9732
66.3065
66.6595
67.0293
67.4165
67.8201
68.2387
68.6721
69.1219
69.5842
70.0579
70.5432
71.0357
71.5364
72.0453
72.5579
73.0734
73.5901
74.1059
74.619
75.1264
75.6277
76.1196
76.5968
77.0562
77.491
77.9258
78.5724
78.6043
78.511
78.3204
78.2146
78.123
77.5857
77.4813
77.3372
77.1066
76.6802
69.1083
62.7396
62.3457
62.1817
62.0341
61.8981
61.7694
61.6496
61.5401
61.4383
61.3426
61.2561
61.1774
61.1061
61.0402
60.9807
60.9292
60.8841
60.846
60.8133
60.7874
60.769
60.7577
60.7542
60.7582
60.7699
60.7895
60.8169
60.8529
60.8992
60.9555
61.0212
61.0984
61.1871
61.2876
61.4013
61.5287
61.6702
61.8252
61.9954
62.182
62.3849
62.6047
62.8407
63.0948
63.3665
63.6554
63.9637
64.2903
64.6337
64.9946
65.3722
65.7659
66.1751
66.5997
67.0374
67.4887
67.9508
68.4229
68.9045
69.394
69.8887
70.3882
70.8905
71.3928
71.894
72.3934
72.8869
73.3738
73.8525
74.3182
74.7683
75.1995
75.6031
76.0078
76.6209
76.5769
76.4277
76.153
76.0077
75.8627
75.3634
75.2706
75.1119
74.8591
74.496
66.9767
60.7979
60.3853
60.2233
60.0777
59.9446
59.819
59.7018
59.5948
59.4951
59.4031
59.3199
59.2438
59.1741
59.1106
59.0544
59.0065
58.9642
58.9282
58.8998
58.878
58.8635
58.8567
58.8566
58.8643
58.8806
58.9061
58.9392
58.9814
59.0346
59.0973
59.17
59.2544
59.3506
59.4594
59.5826
59.7194
59.8698
60.0347
60.2157
60.413
60.6265
60.8561
61.1033
61.3687
61.6505
61.9499
62.2675
62.6023
62.9555
63.3242
63.7081
64.1089
64.523
64.9512
65.3914
65.8426
66.3038
66.7735
67.2511
67.7346
68.2211
68.7094
69.1984
69.6867
70.1721
70.6534
71.1265
71.5917
72.0469
72.4868
72.9099
73.311
73.6853
74.0631
74.6352
74.529
74.336
74.0011
73.8114
73.5763
73.0755
73.0418
72.9003
72.6612
72.3578
64.8647
58.8605
58.4258
58.2651
58.1235
57.9923
57.8701
57.7571
57.6528
57.5567
57.4669
57.3846
57.3114
57.2456
57.1864
57.1336
57.0872
57.0483
57.016
56.9907
56.973
56.9633
56.9605
56.9653
56.9777
56.9982
57.0292
57.0686
57.1164
57.1761
57.246
57.3261
57.4194
57.524
57.6413
57.7729
57.9184
58.0786
58.2534
58.4449
58.653
58.8766
59.1161
59.374
59.6492
59.9408
60.2506
60.5773
60.9211
61.2813
61.6561
62.0471
62.452
62.8688
63.2995
63.74
64.1904
64.6493
65.1152
65.5862
66.0601
66.5371
67.014
67.4885
67.9615
68.4298
68.8906
69.3428
69.7858
70.2155
70.6285
71.024
71.3961
71.7403
72.0903
72.6227
72.4639
72.2244
71.8391
71.6555
71.4026
70.8845
70.8379
70.6964
70.4721
70.2453
62.777
56.9334
56.4759
56.3163
56.179
56.0512
55.9325
55.8226
55.7214
55.6282
55.5416
55.463
55.3929
55.3299
55.273
55.2229
55.1806
55.1455
55.1171
55.0954
55.0816
55.0757
55.0777
55.0873
55.1045
55.1312
55.1677
55.2128
55.2676
55.3343
55.411
55.4986
55.5997
55.7132
55.8393
55.9795
56.1343
56.304
56.4894
56.6914
56.909
57.1427
57.3928
57.6606
57.9453
58.2457
58.5638
58.8992
59.25
59.6159
59.9963
60.3911
60.7998
61.2195
61.6498
62.0898
62.5376
62.991
63.4508
63.9143
64.3779
64.8433
65.3073
65.7668
66.2217
66.6713
67.1117
67.5411
67.9601
68.3641
68.7506
69.1179
69.46
69.7752
70.097
70.5929
70.3871
70.0997
69.7064
69.5354
69.244
68.6974
68.6508
68.5289
68.3465
68.1811
60.7107
55.0249
54.5451
54.3856
54.251
54.1272
54.0121
53.9048
53.8067
53.717
53.6329
53.558
53.4912
53.4308
53.3775
53.3319
53.2934
53.2612
53.2367
53.2199
53.2106
53.2089
53.2152
53.2301
53.2532
53.2852
53.3271
53.379
53.4412
53.5144
53.5987
53.6941
53.803
53.9252
54.0603
54.2092
54.3731
54.553
54.7483
54.9593
55.1864
55.4297
55.6895
55.9667
56.2597
56.5692
56.8955
57.2373
57.594
57.9651
58.3497
58.7477
59.1577
59.5775
60.0064
60.4428
60.8864
61.3342
61.7861
62.2396
62.692
63.1445
63.5923
64.0347
64.4707
64.8993
65.3186
65.7262
66.1199
66.4972
66.8568
67.1958
67.5092
67.7954
68.0877
68.545
68.3029
67.9561
67.6018
67.4681
67.1654
66.5803
66.5021
66.4063
66.2555
66.1324
58.685
53.1406
52.6363
52.4773
52.3459
52.2252
52.1143
52.0116
51.9167
51.8299
51.7497
51.6781
51.6142
51.5565
51.5067
51.4653
51.4308
51.4031
51.3826
51.3697
51.365
51.3684
51.3802
51.3997
51.4282
51.4664
51.5143
51.5725
51.6414
51.722
51.8143
51.9179
52.0343
52.1652
52.3094
52.4671
52.6405
52.8295
53.0337
53.2538
53.4903
53.7429
54.0118
54.2972
54.5982
54.9154
55.2482
55.5957
55.9578
56.3327
56.7201
57.1191
57.5282
57.9461
58.3717
58.8041
59.2416
59.6811
60.1235
60.565
61.0038
61.4408
61.8723
62.2974
62.7137
63.1215
63.5174
63.8991
64.2667
64.6181
64.9507
65.2616
65.5458
65.8019
66.0653
66.491
66.2116
65.8293
65.5653
65.4397
65.1204
64.4957
64.4003
64.3219
64.1745
64.0695
56.6874
51.2882
50.7582
50.5983
50.4704
50.3526
50.2451
50.146
50.0544
49.9711
49.8952
49.8277
49.767
49.7132
49.6678
49.63
49.599
49.5753
49.5589
49.5508
49.5508
49.5591
49.5761
49.6015
49.6359
49.6799
49.7344
49.7994
49.8752
49.9627
50.062
50.174
50.2996
50.4393
50.5921
50.7587
50.9414
51.1394
51.3523
51.5817
51.8269
52.0873
52.3642
52.6577
52.9658
53.2891
53.6275
53.9789
54.3437
54.7216
55.1093
55.5077
55.9155
56.3301
56.751
57.1761
57.605
58.0351
58.4653
58.8933
59.3182
59.7386
60.1521
60.5578
60.9538
61.3381
61.7092
62.0664
62.4089
62.733
63.0374
63.3202
63.5758
63.8037
64.0397
64.4308
64.1221
63.7331
63.5537
63.4347
63.1045
62.432
62.3178
62.2456
62.1083
62.0321
54.7348
49.4701
48.9137
48.7519
48.6278
48.5146
48.4102
48.3148
48.2266
48.1465
48.0743
48.0109
47.955
47.9049
47.8629
47.8291
47.8023
47.7827
47.7707
47.7676
47.7729
47.786
47.8079
47.8391
47.8793
47.9298
47.991
48.0631
48.1462
48.2409
48.3484
48.4685
48.6018
48.7497
48.9113
49.0872
49.278
49.4845
49.7065
49.9436
50.1968
50.4658
50.7499
51.0494
51.3635
51.6917
52.0337
52.3888
52.7551
53.133
53.5213
53.9177
54.321
54.7305
55.1447
55.5622
55.9814
56.3994
56.8165
57.23
57.6385
58.0409
58.4342
58.8184
59.1923
59.5528
59.9004
60.2324
60.5475
60.8437
61.1209
61.3761
61.6039
61.8045
62.0143
62.3728
62.0208
61.678
61.5595
61.4392
61.091
60.4086
60.2876
60.2104
60.0643
59.9968
52.8217
47.6885
47.1061
46.943
46.8216
46.7123
46.6123
46.5202
46.4363
46.3606
46.2921
46.2325
46.1806
46.1346
46.0961
46.066
46.0435
46.0286
46.0222
46.0236
46.0333
46.0517
46.0792
46.1161
46.1628
46.2201
46.2881
46.3669
46.4571
46.5595
46.675
46.8034
46.9451
47.1008
47.2709
47.4554
47.6544
47.8689
48.0988
48.3439
48.6041
48.8799
49.1703
49.4751
49.7935
50.1255
50.4697
50.8263
51.1937
51.5707
51.9565
52.3499
52.7471
53.1501
53.5555
53.9626
54.3705
54.7755
55.1774
55.5746
55.9655
56.3484
56.7215
57.0838
57.435
57.7722
58.094
58.3988
58.6875
58.9574
59.2071
59.4346
59.636
59.8093
59.9931
60.3167
59.9341
59.6491
59.5669
59.4535
59.0782
58.3784
58.271
58.1937
58.0525
57.9987
50.9567
45.9472
45.3392
45.1742
45.0563
44.9504
44.854
44.7668
44.6865
44.6143
44.5507
44.4942
44.4454
44.4041
44.3702
44.3448
44.3271
44.317
44.315
44.3218
44.337
44.3608
44.3937
44.4367
44.4902
44.5542
44.6285
44.7139
44.8119
44.9219
45.0446
45.1811
45.3307
45.494
45.6721
45.8649
46.0722
46.2941
46.5311
46.7834
47.0501
47.3315
47.6268
47.9358
48.2577
48.5922
48.9384
49.2949
49.6611
50.0358
50.417
50.8037
51.1947
51.5893
51.9839
52.3795
52.7743
53.165
53.5505
53.9295
54.3017
54.6641
55.0155
55.3556
55.6827
55.9952
56.2918
56.5711
56.8333
57.0759
57.2987
57.4996
57.6741
57.8207
57.9816
58.2731
57.8645
57.6399
57.5815
57.4707
57.0676
56.4055
56.2934
56.1955
56.0504
56.0101
49.1374
44.2533
43.6174
43.4478
43.3327
43.2312
43.1383
43.0545
42.9793
42.911
42.8516
42.7998
42.7556
42.7193
42.6897
42.668
42.6547
42.6494
42.6521
42.6638
42.6842
42.7141
42.7537
42.8026
42.8623
42.933
43.0142
43.1066
43.2116
43.3292
43.46
43.604
43.7613
43.9324
44.1182
44.3187
44.5333
44.762
45.0057
45.2636
45.5353
45.8217
46.1212
46.4331
46.7571
47.0928
47.4386
47.7939
48.1572
48.527
48.9028
49.283
49.6654
50.0497
50.4334
50.8156
51.1949
51.5694
51.9376
52.2977
52.6491
52.9899
53.3199
53.6367
53.9396
54.2268
54.4977
54.7516
54.9877
55.2041
55.4004
55.5752
55.7243
55.8457
55.9865
56.2429
55.8176
55.6498
55.6008
55.4907
55.06
54.4274
54.3377
54.2457
54.1078
54.0702
47.3647
42.604
41.9398
41.766
41.6538
41.5563
41.4679
41.3884
41.3175
41.254
41.1988
41.1508
41.1101
41.078
41.0541
41.037
41.0279
41.0276
41.0356
41.0528
41.0792
41.1147
41.1601
41.2152
41.2811
41.3583
41.4465
41.5463
41.6589
41.7841
41.9218
42.0732
42.2383
42.4163
42.6094
42.8172
43.038
43.2729
43.5226
43.7857
44.0616
44.3517
44.6543
44.968
45.2927
45.6278
45.9718
46.3238
46.6829
47.0468
47.4151
47.7869
48.1592
48.5314
48.9016
49.2696
49.633
49.9902
50.3398
50.6803
51.0109
51.33
51.6369
51.9297
52.2082
52.4707
52.7162
52.9441
53.1543
53.3452
53.5162
53.6655
53.7895
53.8873
54.0106
54.2289
53.8054
53.6826
53.6336
53.5137
53.0662
52.5127
52.43
52.3174
52.1838
52.1591
45.6419
40.999
40.3108
40.1316
40.0212
39.9271
39.8435
39.7689
39.7016
39.6427
39.5918
39.5476
39.5119
39.4849
39.4651
39.4528
39.4489
39.4535
39.4673
39.49
39.5215
39.5626
39.6141
39.6761
39.7487
39.8322
39.927
40.034
40.154
40.2862
40.4314
40.59
40.7616
40.947
41.1467
41.3601
41.5872
41.8277
42.0818
42.3493
42.6295
42.9216
43.2247
43.5389
43.8633
44.1962
44.537
44.885
45.238
45.5945
45.954
46.3149
46.676
47.0357
47.3915
47.7437
48.0896
48.4282
48.758
49.078
49.3873
49.6835
49.9671
50.2363
50.4904
50.728
50.9486
51.1516
51.3371
51.5029
51.649
51.7747
51.8761
51.9511
52.059
52.2365
51.8367
51.7356
51.6833
51.5478
51.0951
50.6186
50.5413
50.4269
50.3063
50.2829
43.9733
39.4454
38.7302
38.5434
38.436
38.3464
38.2669
38.1965
38.1338
38.0796
38.0332
37.9935
37.9622
37.9394
37.9248
37.9174
37.9183
37.9286
37.9474
37.9754
38.013
38.0604
38.1177
38.1859
38.265
38.3552
38.4571
38.571
38.6975
38.8366
38.9884
39.1539
39.3324
39.5239
39.7293
39.9485
40.1811
40.4262
40.684
40.9543
41.2366
41.53
41.8339
42.1475
42.4693
42.799
43.1355
43.4772
43.8228
44.1703
44.5199
44.8695
45.2171
45.5618
45.9021
46.2376
46.5651
46.8848
47.1945
47.4935
47.7798
48.0532
48.314
48.5591
48.7885
49.0014
49.198
49.3771
49.5384
49.6807
49.8035
49.9059
49.9858
50.0406
50.1355
50.2692
49.9008
49.8156
49.7582
49.5998
49.1625
48.78
48.6986
48.5729
48.4565
48.4312
42.3505
37.9389
37.2003
37.0051
36.8992
36.8135
36.7383
36.6721
36.6146
36.5644
36.5217
36.487
36.4605
36.442
36.4321
36.4305
36.4371
36.4526
36.4771
36.5107
36.554
36.6074
36.671
36.7454
36.8307
36.9275
37.0361
37.157
37.2901
37.4357
37.5943
37.7657
37.9499
38.1476
38.3583
38.5822
38.819
39.0678
39.3285
39.6012
39.8846
40.178
40.4806
40.7917
41.1107
41.4355
41.7657
42.0999
42.4367
42.7744
43.1121
43.4484
43.7825
44.1123
44.4356
44.7528
45.0614
45.3606
45.6494
45.9271
46.1909
46.4415
46.6782
46.9
47.1062
47.2956
47.4681
47.6233
47.7614
47.8808
47.9817
48.0631
48.1222
48.1593
48.2444
48.3332
47.9969
47.9266
47.8651
47.6784
47.2762
46.9684
46.8742
46.7394
46.6353
46.6145
40.7822
36.4815
35.7214
35.516
35.4113
35.3295
35.2589
35.197
35.1436
35.0983
35.0603
35.0303
35.0084
34.9949
34.9901
34.9934
35.0052
35.026
35.056
35.0952
35.1446
35.2043
35.2741
35.3546
35.4464
35.5495
35.6642
35.7916
35.9313
36.0831
36.2474
36.4247
36.6148
36.8176
37.033
37.2609
37.5009
37.7522
38.0147
38.288
38.5713
38.8639
39.164
39.4717
39.7857
40.1044
40.4275
40.7528
41.0792
41.4054
41.7308
42.0534
42.3717
42.6846
42.991
43.2894
43.578
43.8571
44.1247
44.3801
44.6216
44.8498
45.0637
45.262
45.4446
45.611
45.7604
45.8929
46.0088
46.1072
46.1876
46.2496
46.2906
46.313
46.3889
46.4322
46.1269
46.0751
46.007
45.7963
45.4364
45.1811
45.0787
44.9428
44.8503
44.8216
39.2636
35.0742
34.293
34.0761
33.9721
33.8942
33.828
33.7704
33.7212
33.6805
33.6478
33.6228
33.606
33.5974
33.597
33.6055
33.6228
33.6491
33.6849
33.7299
33.7849
33.8503
33.9264
34.0133
34.1112
34.2203
34.3416
34.4753
34.6207
34.7782
34.9482
35.1307
35.3258
35.5329
35.7518
35.9827
36.225
36.4782
36.7416
37.0145
37.2965
37.5867
37.8835
38.1865
38.4944
38.8056
39.1197
39.4352
39.7502
40.0641
40.3757
40.6829
40.9853
41.2808
41.5686
41.8482
42.1169
42.375
42.6209
42.8541
43.0738
43.2799
43.4707
43.6459
43.8057
43.9498
44.0778
44.1894
44.2846
44.3628
44.424
44.4682
44.4937
44.5045
44.5714
44.5714
44.2963
44.2529
44.1772
43.9464
43.6287
43.4177
43.3098
43.179
43.1052
37.793
33.7165
32.9152
32.6862
32.5824
32.5079
32.4459
32.3929
32.3484
32.3121
32.2836
32.2637
32.2519
32.2483
32.2534
32.2672
32.2898
32.3217
32.3631
32.414
32.4747
32.546
32.6281
32.7211
32.825
32.9405
33.0677
33.2067
33.3577
33.5206
33.6954
33.8826
34.0818
34.2927
34.5145
34.7474
34.9911
35.245
35.5081
35.7799
36.0593
36.3456
36.6376
36.9347
37.235
37.5378
37.8425
38.1467
38.449
38.7492
39.0462
39.3378
39.6229
39.9004
40.1693
40.4289
40.6776
40.9149
41.1395
41.3512
41.5487
41.7325
41.9016
42.0549
42.1927
42.3155
42.423
42.5149
42.5905
42.65
42.6937
42.7216
42.7337
42.7348
42.7932
42.7526
42.5111
36.373
32.4056
31.5884
31.3459
31.2414
31.17
31.112
31.0636
31.024
30.9921
30.9687
30.954
30.9473
30.9488
30.9585
30.9775
31.0059
31.0434
31.0903
31.1467
31.2134
31.2907
31.3786
31.4773
31.5869
31.7082
31.841
31.9854
32.1413
32.3091
32.4885
32.6797
32.8821
33.0956
33.3198
33.5541
33.7981
34.0515
34.313
34.5821
34.8576
35.139
35.425
35.7148
36.0067
36.3001
36.5936
36.8855
37.1747
37.4609
37.7423
38.0168
38.2843
38.5439
38.7941
39.0339
39.2619
39.4783
39.6814
39.8717
40.0477
40.2098
40.3575
40.4902
40.6076
40.7105
40.7984
40.871
40.9284
40.9715
40.9991
41.0129
41.0146
41.008
41.0577
40.9807
40.7722
35.0032
31.1404
30.3126
30.055
29.9486
29.8799
29.8264
29.7829
29.7478
29.7207
29.7023
29.6927
29.691
29.6975
29.7128
29.7372
29.7706
29.8135
29.8658
29.9281
30.0005
30.0834
30.1769
30.2811
30.3963
30.5229
30.6609
30.8101
30.9708
31.1428
31.326
31.5204
31.7253
31.9407
32.1659
32.4007
32.644
32.8955
33.1548
33.4204
33.691
33.9665
34.2454
34.5267
34.8092
35.0915
35.3731
35.6523
35.9275
36.1985
36.4636
36.721
36.9702
37.2106
37.4414
37.6616
37.8694
38.0651
38.2474
38.4169
38.5723
38.7139
38.841
38.9537
39.0517
39.1354
39.2051
39.2603
39.3015
39.3292
39.3427
39.3453
39.3377
39.3248
39.3648
39.2585
39.0827
33.6813
29.9231
29.0865
28.8134
28.7047
28.6383
28.5888
28.55
28.5194
28.4976
28.4845
28.4795
28.4825
28.4942
28.515
28.5444
28.583
28.6311
28.689
28.7568
28.8348
28.9231
29.0221
29.1317
29.2523
29.3839
29.5263
29.6798
29.8444
30.0202
30.2066
30.4033
30.6099
30.8263
31.0518
31.2859
31.5275
31.7764
32.032
32.2927
32.5574
32.8258
33.0963
33.3685
33.6408
33.9116
34.1802
34.4453
34.7057
34.961
35.2089
35.4488
35.6802
35.9019
36.1134
36.3137
36.5011
36.6765
36.8389
36.9882
37.1233
37.2452
37.3528
37.4465
37.5265
37.5931
37.6459
37.6852
37.7117
37.7254
37.7271
37.7204
37.7048
37.6872
37.7164
37.5881
37.444
32.4059
28.7511
27.9104
27.6207
27.5084
27.444
27.3982
27.3637
27.3381
27.3212
27.3127
27.3126
27.3209
27.3376
27.3637
27.3986
27.4424
27.4959
27.559
27.6322
27.7156
27.8092
27.9132
28.0278
28.1532
28.2894
28.4362
28.5935
28.7614
28.9398
29.1285
29.3269
29.5345
29.751
29.976
30.2082
30.4473
30.6928
30.9435
31.1984
31.4564
31.7167
31.9783
32.2397
32.5002
32.7586
33.0137
33.2642
33.5093
33.7483
33.9792
34.2016
34.4145
34.6175
34.81
34.9903
35.1584
35.3143
35.4569
35.5866
35.7027
35.8058
35.8952
35.9713
36.0346
36.0847
36.1219
36.1473
36.1603
36.1623
36.1544
36.1393
36.1173
36.0976
36.1147
35.9722
35.859
31.1791
27.6229
26.7827
26.4755
26.3587
26.2957
26.2537
26.2238
26.2031
26.1909
26.187
26.1918
26.2053
26.2274
26.2583
26.2983
26.3476
26.4063
26.4747
26.5531
26.6415
26.74
26.8488
26.9682
27.098
27.2381
27.3885
27.5493
27.7202
27.9007
28.0907
28.2898
28.4974
28.7133
28.9364
29.166
29.4016
29.6425
29.8874
30.1353
30.3855
30.6369
30.8883
31.1388
31.3873
31.6323
31.8732
32.1087
32.3381
32.5603
32.774
32.9788
33.1737
33.3577
33.531
33.6925
33.8418
33.9786
34.1022
34.2131
34.3112
34.3966
34.469
34.5289
34.5766
34.6122
34.6356
34.6478
34.6492
34.6415
34.6256
34.604
34.5769
34.557
34.5597
34.4116
34.3194
29.9927
26.5369
25.7026
25.3777
25.2558
25.1937
25.1548
25.1288
25.1127
25.1058
25.1069
25.1166
25.135
25.1621
25.1983
25.2434
25.2976
25.3614
25.4349
25.5183
25.6116
25.7148
25.828
25.9514
26.0851
26.2288
26.3824
26.5457
26.7186
26.9005
27.0913
27.2905
27.4973
27.7114
27.9319
28.1581
28.389
28.624
28.8623
29.1026
29.3442
29.5861
29.8264
30.0648
30.3005
30.5318
30.758
30.9782
31.1916
31.3969
31.5933
31.7802
31.9572
32.1232
32.2778
32.4205
32.5515
32.6699
32.776
32.8696
32.9508
33.0197
33.076
33.1209
33.1544
33.1765
33.1878
33.1887
33.18
33.1645
33.1423
33.115
33.0841
33.0654
33.0522
32.9078
28.8518
25.4925
24.669
24.3259
24.1981
24.1366
24.1006
24.0787
24.0671
24.0647
24.0705
24.0852
24.1087
24.141
24.1819
24.2321
24.2915
24.3601
24.4384
24.5265
24.6242
24.7316
24.849
24.9763
25.1134
25.2601
25.416
25.5812
25.7554
25.9382
26.1288
26.327
26.5322
26.7437
26.9606
27.1823
27.4079
27.6366
27.8673
28.099
28.331
28.5622
28.7912
29.0172
29.2393
29.4566
29.668
29.8725
30.0696
30.2581
30.4372
30.6065
30.7656
30.914
31.0507
31.1755
31.2888
31.3899
31.4793
31.5565
31.6218
31.6753
31.7171
31.7484
31.7689
31.7792
31.7796
31.7707
31.7542
31.7322
31.7044
31.6734
31.6409
31.6244
31.5942
31.4597
27.7539
24.4882
23.6805
23.3198
23.1849
23.1233
23.0899
23.0717
23.0645
23.067
23.0776