/*--------------------------------*- C++ -*----------------------------------*\
  =========                 |
  \\      /  F ield         | OpenFOAM: The Open Source CFD Toolbox
   \\    /   O peration     | Website:  https://openfoam.org
    \\  /    A nd           | Version:  9
     \\/     M anipulation  |
\*---------------------------------------------------------------------------*/
FoamFile
{
    format      ascii;
    class       volScalarField;
    location    "750";
    object      p;
}
// * * * * * * * * * * * * * * * * * * * * * * * * * * * * * * * * * * * * * //

dimensions      [0 2 -2 0 0 0 0];

internalField   nonuniform List<scalar> 
13617
(
0.000175836
0.000156399
0.000167226
0.000156207
0.000153563
0.000141816
0.000134532
0.000123321
0.000115231
0.000106026
9.9685e-05
9.42711e-05
9.16115e-05
9.11009e-05
9.37078e-05
9.91976e-05
0.000108051
0.000120075
0.000135415
0.000153379
0.000174339
0.000197055
0.000221362
0.000245753
0.000269536
0.00029105
0.000308608
0.000320285
0.000323866
0.00031685
0.000296463
0.000259594
0.000202822
0.000122428
1.43359e-05
-0.000125998
-0.0003034
-0.000523271
-0.00079135
-0.00111399
-0.00149816
-0.00195127
-0.00248134
-0.00309679
-0.00380685
-0.00462069
-0.00554835
-0.00659932
-0.0077836
-0.00911087
-0.0105892
-0.0122282
-0.0140336
-0.0160117
-0.0181674
-0.0205023
-0.0230182
-0.0257128
-0.0285835
-0.0316248
-0.0348304
-0.0381904
-0.0416938
-0.0453281
-0.0490776
-0.0529249
-0.056848
-0.0608209
-0.0648097
-0.0687809
-0.0726769
-0.0764354
-0.0799756
-0.0831897
-0.085965
-0.0881215
-0.0894266
-0.0896954
-0.0887872
-0.0863669
-0.0821132
-0.0760355
-0.0678996
-0.0572538
-0.0444041
-0.0307422
0.000183803
0.000152676
0.000163158
0.00015177
0.000148805
0.000136757
0.000129168
0.000117684
0.000109332
9.99151e-05
9.33564e-05
8.77741e-05
8.49753e-05
8.43694e-05
8.6911e-05
9.23736e-05
0.000101252
0.000113343
0.000128819
0.000146963
0.000168145
0.000191162
0.00021581
0.000240642
0.000264881
0.000286981
0.000305218
0.000317674
0.000322188
0.000316269
0.000297219
0.000261955
0.000207136
0.000129125
2.39727e-05
-0.00011271
-0.000285665
-0.000499977
-0.000761331
-0.0010757
-0.00144983
-0.00189071
-0.00240611
-0.00300408
-0.00369324
-0.00448247
-0.00538112
-0.00639834
-0.00754333
-0.00882523
-0.010252
-0.0118312
-0.0135691
-0.0154707
-0.0175402
-0.0197786
-0.0221852
-0.0247584
-0.0274927
-0.0303817
-0.0334162
-0.0365833
-0.0398691
-0.0432565
-0.0467249
-0.0502499
-0.0538007
-0.0573445
-0.0608392
-0.0642363
-0.0674778
-0.0704908
-0.0731861
-0.0754646
-0.077221
-0.0783078
-0.0785242
-0.0776597
-0.0756313
-0.0722964
-0.067272
-0.0603084
-0.0514702
-0.0404693
-0.0272513
-0.0125664
0.000181222
0.000147902
0.000158007
0.000146206
0.000142897
0.000130522
0.000122622
0.000110873
0.000102261
9.26469e-05
8.5906e-05
8.01875e-05
7.72898e-05
7.66369e-05
7.91648e-05
8.46667e-05
9.36338e-05
0.000105862
0.000121522
0.00013992
0.000161388
0.000184759
0.000209808
0.000235113
0.000259884
0.000282598
0.00030154
0.000314805
0.000320267
0.00031548
0.000297763
0.000264115
0.000211266
0.000135731
3.35568e-05
-9.93739e-05
-0.000267718
-0.000476316
-0.000730634
-0.00103653
-0.00140017
-0.00182845
-0.00232857
-0.00290838
-0.0035759
-0.00433958
-0.00520812
-0.00619013
-0.00729435
-0.00852902
-0.0099015
-0.0114181
-0.0130856
-0.0149074
-0.0168857
-0.0190217
-0.0213139
-0.0237584
-0.0263488
-0.0290765
-0.0319291
-0.0348933
-0.0379502
-0.0410783
-0.0442524
-0.0474432
-0.050614
-0.0537264
-0.0567302
-0.0595731
-0.0621958
-0.0645208
-0.0664692
-0.0679429
-0.0688495
-0.0690921
-0.0685254
-0.0669321
-0.0641725
-0.0602579
-0.0549622
-0.047978
-0.0393091
-0.0286399
-0.0159758
-0.00180637
0.000173895
0.000143148
0.000152942
0.00014076
0.000137143
0.000124467
0.000116284
0.000104288
9.54478e-05
8.56531e-05
7.8747e-05
7.29084e-05
6.99205e-05
6.92213e-05
7.17381e-05
7.72726e-05
8.63148e-05
9.86643e-05
0.000114478
0.000133098
0.000154812
0.000178498
0.000203887
0.000229612
0.000254863
0.000278119
0.000297681
0.000311683
0.000318004
0.000314241
0.000297768
0.000265624
0.000214635
0.000141383
4.20916e-05
-8.73172e-05
-0.000251216
-0.000454408
-0.000702005
-0.000999631
-0.00135324
-0.00176933
-0.00225483
-0.00281684
-0.0034634
-0.00420221
-0.00504125
-0.00598903
-0.0070532
-0.00824151
-0.00956045
-0.0110164
-0.0126139
-0.0143565
-0.0162456
-0.0182813
-0.0204606
-0.0227787
-0.0252281
-0.0277979
-0.0304739
-0.0332406
-0.0360746
-0.038952
-0.0418443
-0.0447151
-0.0475237
-0.0502248
-0.0527634
-0.055081
-0.0571111
-0.0587746
-0.0599981
-0.0606749
-0.0607099
-0.0600324
-0.0585587
-0.0561006
-0.0524382
-0.0475655
-0.041439
-0.0339985
-0.024998
-0.0139976
-0.00133943
0.0125174
0.00016798
0.00013861
0.000148139
0.000135601
0.000131695
0.000118739
0.000110281
9.80581e-05
8.89887e-05
7.90207e-05
7.19525e-05
6.59852e-05
6.29052e-05
6.2147e-05
6.46444e-05
7.01928e-05
7.92908e-05
9.17338e-05
0.000107674
0.000126487
0.000148415
0.000172379
0.00019808
0.000224187
0.000249879
0.000273643
0.000293789
0.000308497
0.000315647
0.000312891
0.000297628
0.000266975
0.000217831
0.000146869
5.0434e-05
-7.54494e-05
-0.000234962
-0.000432682
-0.000673622
-0.000962921
-0.00130656
-0.00171041
-0.00218106
-0.00272552
-0.0033508
-0.00406458
-0.00487436
-0.00578742
-0.00681129
-0.00795317
-0.00921862
-0.0106132
-0.0121409
-0.0138045
-0.0156056
-0.0175414
-0.0196095
-0.0218041
-0.0241161
-0.0265331
-0.0290406
-0.0316191
-0.0342452
-0.0368919
-0.0395266
-0.0421105
-0.0445992
-0.046945
-0.0490873
-0.0509656
-0.0525093
-0.0536395
-0.0542826
-0.0543396
-0.053708
-0.0523104
-0.0500936
-0.046939
-0.0426568
-0.0371696
-0.0303678
-0.0223724
-0.0128954
-0.00169782
0.010743
0.0240917
0.000163646
0.00013412
0.000143385
0.00013049
0.00012629
0.000113049
0.00010432
9.18554e-05
8.25608e-05
7.24114e-05
6.51718e-05
5.90739e-05
5.58908e-05
5.50673e-05
5.75348e-05
6.30928e-05
7.22348e-05
8.47642e-05
0.000100828
0.000119828
0.000141958
0.000166201
0.000192203
0.000218697
0.000244819
0.000269097
0.000289845
0.000305264
0.000313269
0.000311548
0.000297529
0.000268417
0.00022121
0.000152602
5.91044e-05
-6.30693e-05
-0.000218057
-0.000410132
-0.000644089
-0.000924924
-0.00125806
-0.00164931
-0.00210473
-0.00263088
-0.00323445
-0.00392241
-0.00470172
-0.00557938
-0.00656217
-0.00765631
-0.0088673
-0.0101996
-0.0116569
-0.0132415
-0.0149529
-0.0167894
-0.0187475
-0.02082
-0.0229973
-0.0252668
-0.0276125
-0.0300133
-0.0324453
-0.03488
-0.0372831
-0.0396143
-0.0418286
-0.043875
-0.0456952
-0.0472269
-0.0483994
-0.0491359
-0.0493629
-0.0489994
-0.0479387
-0.0460777
-0.0433629
-0.0397523
-0.0351071
-0.029371
-0.0222031
-0.0138541
-0.00426267
0.00660146
0.0185173
0.0311877
0.000159366
0.000129598
0.000138584
0.000125319
0.000120825
0.00010729
9.82831e-05
8.5574e-05
7.6044e-05
6.57091e-05
5.82947e-05
5.20616e-05
4.87705e-05
4.78804e-05
5.03128e-05
5.58745e-05
6.50586e-05
7.76731e-05
9.38558e-05
0.000113035
0.000135369
0.000159885
0.000186191
0.000213068
0.000239619
0.000264407
0.000285768
0.000301903
0.000310774
0.000310094
0.000297365
0.000269846
0.000224584
0.00015844
6.79744e-05
-5.04016e-05
-0.000200672
-0.000386944
-0.000613666
-0.000885694
-0.00120808
-0.00158629
-0.00202602
-0.00253334
-0.00311463
-0.00377605
-0.00452426
-0.00536575
-0.00630632
-0.00735214
-0.00850764
-0.0097767
-0.011163
-0.0126672
-0.0142889
-0.0160262
-0.0178744
-0.0198257
-0.0218706
-0.0239954
-0.0261834
-0.028413
-0.0306601
-0.0328945
-0.0350814
-0.0371805
-0.0391448
-0.0409252
-0.0424628
-0.0436962
-0.0445557
-0.0449668
-0.0448598
-0.0441607
-0.04277
-0.0405849
-0.0375298
-0.0336032
-0.0286528
-0.0227558
-0.0155199
-0.00732036
0.00190191
0.0121831
0.02346
0.0354161
0.000154684
0.000125061
0.000133756
0.000120124
0.000115329
0.000101502
9.22122e-05
7.92604e-05
6.94977e-05
5.89684e-05
5.13824e-05
4.50093e-05
4.16088e-05
4.06485e-05
4.30415e-05
4.8604e-05
5.78258e-05
7.05175e-05
8.68121e-05
0.00010616
0.000128692
0.000153464
0.000180066
0.000207307
0.00023428
0.000259562
0.00028152
0.000298361
0.000308098
0.000308463
0.000297022
0.000271109
0.000227833
0.000164174
7.68365e-05
-3.77077e-05
-0.000183122
-0.000363422
-0.000582793
-0.000845799
-0.00115719
-0.00152205
-0.00194575
-0.00243386
-0.00299217
-0.00362672
-0.00434328
-0.00514777
-0.0060456
-0.00704219
-0.00814127
-0.0093468
-0.0106605
-0.0120837
-0.0136154
-0.0152528
-0.0169906
-0.018821
-0.0207338
-0.0227151
-0.0247473
-0.026809
-0.0288751
-0.0309148
-0.0328939
-0.0347698
-0.0364983
-0.0380279
-0.0393011
-0.0402584
-0.0408323
-0.0409517
-0.0405467
-0.039547
-0.0378779
-0.0354525
-0.0321667
-0.0280634
-0.0229355
-0.0169886
-0.0100033
-0.00248138
0.00625383
0.0160174
0.0267455
0.0379629
0.000149939
0.00012052
0.000128922
0.000114928
0.000109832
9.57154e-05
8.61458e-05
7.29508e-05
6.29532e-05
5.22369e-05
4.44728e-05
3.79615e-05
3.44477e-05
3.34137e-05
3.57633e-05
4.13196e-05
5.05713e-05
6.33309e-05
7.9726e-05
9.92337e-05
0.000121944
0.00014696
0.000173839
0.000201425
0.000228803
0.000254569
0.000277099
0.000294643
0.000305227
0.000306641
0.000296499
0.000272196
0.00023094
0.000169823
8.56388e-05
-2.49078e-05
-0.000165422
-0.000339567
-0.000551431
-0.000805171
-0.00110532
-0.00145649
-0.00186372
-0.00233219
-0.00286715
-0.00347405
-0.0041583
-0.0049251
-0.00577926
-0.00672551
-0.00776738
-0.00890771
-0.0101482
-0.0114893
-0.0129296
-0.014466
-0.0160925
-0.0178015
-0.0195819
-0.0214198
-0.0232977
-0.0251935
-0.0270824
-0.0289331
-0.0307106
-0.0323754
-0.033881
-0.0351775
-0.0362106
-0.0369203
-0.0372458
-0.0371205
-0.0364726
-0.0352453
-0.0333827
-0.0308218
-0.0274372
-0.0233408
-0.0183175
-0.0125361
-0.00594965
0.00100338
0.00912911
0.0184559
0.0286262
0.0389575
0.000145359
0.000115941
0.00012408
0.000109723
0.000104333
8.99244e-05
8.00789e-05
6.66381e-05
5.64075e-05
4.55022e-05
3.75598e-05
3.09082e-05
2.72831e-05
2.61672e-05
2.8468e-05
3.40131e-05
4.32853e-05
5.61038e-05
7.25865e-05
9.22396e-05
0.000115122
0.000140358
0.000167504
0.000195415
0.000223181
0.000249412
0.000272507
0.000290743
0.000302166
0.000304636
0.000295802
0.000273139
0.000233961
0.000175415
9.45125e-05
-1.19765e-05
-0.000147383
-0.000315257
-0.000519333
-0.000763542
-0.00105204
-0.00138918
-0.0017795
-0.00222767
-0.00273865
-0.00331719
-0.00396826
-0.00469629
-0.00550584
-0.00640061
-0.007384
-0.0084577
-0.00962368
-0.0108814
-0.0122288
-0.0136627
-0.0151769
-0.0167636
-0.0184117
-0.0201071
-0.0218322
-0.0235653
-0.0252818
-0.0269504
-0.0285384
-0.0300061
-0.0313078
-0.0323978
-0.0332239
-0.0337285
-0.0338582
-0.0335509
-0.0327437
-0.0313857
-0.0294311
-0.0268562
-0.0235201
-0.0195707
-0.0148681
-0.00945548
-0.00320322
0.00337544
0.0111404
0.019963
0.0291416
0.0385768
0.000140881
0.000111336
0.000119215
0.000104499
9.88145e-05
8.41193e-05
7.39937e-05
6.03131e-05
4.9848e-05
3.87519e-05
3.06302e-05
2.38346e-05
2.00915e-05
1.88941e-05
2.11414e-05
2.66658e-05
3.59513e-05
4.88156e-05
6.53808e-05
8.516e-05
0.000108197
0.000133642
0.000161034
0.000189257
0.000217394
0.00024407
0.000267725
0.000286633
0.000298905
0.000302435
0.000294929
0.000273927
0.000236867
0.000181003
0.000103446
1.16267e-06
-0.000128981
-0.000290349
-0.000486396
-0.00072073
-0.000997236
-0.00131985
-0.00169269
-0.0021201
-0.00260628
-0.00315569
-0.00377254
-0.00446091
-0.00522464
-0.00606691
-0.00699019
-0.00799633
-0.00908614
-0.0102588
-0.0115123
-0.0128426
-0.014244
-0.015708
-0.0172242
-0.0187778
-0.0203529
-0.0219274
-0.0234777
-0.0249742
-0.0263849
-0.0276719
-0.0287932
-0.0297053
-0.0303591
-0.0307035
-0.0306893
-0.0302608
-0.0293697
-0.0279622
-0.0260031
-0.0235109
-0.0203251
-0.0165834
-0.0122369
-0.00721474
-0.00146831
0.00480995
0.0121006
0.0201249
0.0285416
0.0372178
0.000136418
0.000106712
0.000114329
9.92553e-05
9.3277e-05
7.82959e-05
6.78939e-05
5.39695e-05
4.327e-05
3.19821e-05
2.36817e-05
1.67379e-05
1.28721e-05
1.15875e-05
1.37766e-05
1.92742e-05
2.8562e-05
4.14635e-05
5.80965e-05
7.79876e-05
0.000101164
0.000126803
0.000154416
0.000182934
0.000211422
0.000238532
0.000262723
0.0002823
0.000295421
0.000300001
0.000293842
0.000274549
0.000239652
0.000186535
0.000112432
1.45181e-05
-0.000110239
-0.000264838
-0.000452554
-0.000676762
-0.000940823
-0.00124849
-0.00160333
-0.00200923
-0.00246997
-0.00298938
-0.00357122
-0.00421896
-0.00493564
-0.00572419
-0.00658633
-0.00752351
-0.00853583
-0.00962245
-0.0107809
-0.012007
-0.0132948
-0.0146363
-0.016021
-0.0174352
-0.018863
-0.0202836
-0.0216745
-0.0230084
-0.0242544
-0.0253774
-0.0263392
-0.0270991
-0.0276122
-0.0278333
-0.027718
-0.0272183
-0.0262938
-0.0249004
-0.0229959
-0.0206353
-0.0176588
-0.0141481
-0.0101386
-0.00547327
-9.43325e-05
0.00563084
0.012105
0.0193901
0.0270845
0.0349567
0.000131957
0.000102064
0.000109422
9.39911e-05
8.77212e-05
7.24549e-05
6.1775e-05
4.76136e-05
3.6678e-05
2.51955e-05
1.67137e-05
9.62127e-06
5.62976e-06
4.25154e-06
6.3728e-06
1.18363e-05
2.11172e-05
3.40434e-05
5.0728e-05
7.07204e-05
9.40139e-05
0.00011983
0.000147643
0.000176432
0.000205251
0.000232777
0.000257478
0.000277718
0.000291676
0.000297317
0.000292517
0.000274974
0.000242296
0.000191988
0.000121462
2.803e-05
-9.11027e-05
-0.000238744
-0.000417884
-0.000631561
-0.000882897
-0.00117505
-0.00151135
-0.00189507
-0.00232964
-0.00281832
-0.0033642
-0.00397028
-0.00463902
-0.00537255
-0.00617256
-0.00703951
-0.00797326
-0.00897291
-0.0100354
-0.0111565
-0.0123305
-0.0135499
-0.0148041
-0.0160806
-0.0173642
-0.0186355
-0.0198744
-0.0210541
-0.0221475
-0.0231219
-0.0239425
-0.0245727
-0.0249723
-0.0251001
-0.0249189
-0.0243867
-0.0234672
-0.0221343
-0.0203272
-0.0181313
-0.015407
-0.0121607
-0.00851759
-0.00425629
0.000341651
0.00565015
0.0116287
0.0181658
0.0249867
0.0318781
0.000127526
9.73818e-05
0.00010449
8.8709e-05
8.2149e-05
6.65975e-05
5.5645e-05
4.12398e-05
3.00715e-05
1.83963e-05
9.72892e-06
2.48457e-06
-1.63464e-06
-3.11375e-06
-1.06563e-06
4.35245e-06
1.36152e-05
2.65552e-05
4.32742e-05
6.33511e-05
8.67437e-05
0.000112708
0.000140709
0.000169741
0.000198869
0.000226782
0.000251986
0.000272868
0.000287649
0.000294372
0.000290947
0.000275171
0.000244774
0.000197369
0.000130533
4.17157e-05
-7.1597e-05
-0.000212073
-0.000382312
-0.000585118
-0.000823235
-0.00109944
-0.00141661
-0.00177759
-0.00218531
-0.00264238
-0.00315143
-0.00371489
-0.00433462
-0.00501224
-0.0057489
-0.00654456
-0.00739886
-0.0083104
-0.00927607
-0.0102919
-0.011352
-0.0124495
-0.0135745
-0.0147153
-0.0158577
-0.0169849
-0.0180776
-0.019112
-0.0200634
-0.0209033
-0.0215996
-0.0221209
-0.022431
-0.0224936
-0.0222769
-0.0217454
-0.0208689
-0.0196345
-0.0179686
-0.0159678
-0.0135403
-0.0106021
-0.00738907
-0.00356847
0.000685503
0.005152
0.0101454
0.0160925
0.0221422
0.0282454
0.000123114
9.26743e-05
9.95345e-05
8.34046e-05
7.65544e-05
6.07255e-05
4.94967e-05
3.48511e-05
2.34472e-05
1.15797e-05
2.72429e-06
-4.67387e-06
-8.92781e-06
-1.05118e-05
-8.54478e-06
-3.18077e-06
6.05304e-06
1.8989e-05
3.57297e-05
5.58695e-05
7.93431e-05
0.000105431
0.000133591
0.000162848
0.000192256
0.000220536
0.00024622
0.000267734
0.000283336
0.000291132
0.000289099
0.000275141
0.000247077
0.000202677
0.00013962
5.56153e-05
-5.17148e-05
-0.000184737
-0.000345796
-0.000537359
-0.000761827
-0.00102158
-0.00131909
-0.00165671
-0.00203676
-0.00246145
-0.00293286
-0.00345269
-0.00402249
-0.00464325
-0.00531556
-0.00603899
-0.00681288
-0.00763557
-0.00850398
-0.00941415
-0.0103606
-0.011337
-0.0123338
-0.0133411
-0.0143461
-0.0153334
-0.016286
-0.0171833
-0.0180034
-0.0187218
-0.0193099
-0.0197409
-0.0199839
-0.0200075
-0.0197842
-0.019286
-0.0184875
-0.0173874
-0.0159046
-0.0141304
-0.0120475
-0.0094634
-0.00671817
-0.00351433
-0.000179645
0.00413902
0.00888837
0.0136871
0.0187037
0.0241539
0.000118699
8.79438e-05
9.45539e-05
7.80786e-05
7.09415e-05
5.4834e-05
4.33306e-05
2.84474e-05
1.68061e-05
4.74313e-06
-4.30021e-06
-1.18565e-05
-1.62503e-05
-1.79434e-05
-1.60668e-05
-1.07658e-05
-1.5747e-06
1.13435e-05
2.80887e-05
4.82711e-05
7.18003e-05
9.79911e-05
0.000126286
0.000155738
0.000185399
0.000214018
0.000240167
0.000262292
0.000278717
0.000287576
0.000286971
0.000274865
0.000249197
0.000207868
0.000148749
6.96881e-05
-3.1443e-05
-0.00015672
-0.00030832
-0.00048829
-0.000698644
-0.000941483
-0.00121874
-0.00153231
-0.00188402
-0.00227562
-0.00270852
-0.00318399
-0.00370289
-0.00426585
-0.00487287
-0.0055234
-0.00621629
-0.0069497
-0.00772046
-0.00852486
-0.00935813
-0.010214
-0.0110846
-0.0119607
-0.0128315
-0.0136836
-0.0145024
-0.0152707
-0.0159696
-0.0165783
-0.0170734
-0.0174313
-0.0176269
-0.0176347
-0.0174324
-0.0169976
-0.0163056
-0.0153729
-0.0141134
-0.0125942
-0.010883
-0.00868967
-0.00637768
-0.00350517
-0.000668444
0.00242269
0.00591521
0.0103458
0.0149566
0.0198207
0.000114298
8.31809e-05
8.95451e-05
7.27256e-05
6.53053e-05
4.89192e-05
3.71444e-05
2.20252e-05
1.01467e-05
-2.11099e-06
-1.13457e-05
-1.90649e-05
-2.36024e-05
-2.54134e-05
-2.36336e-05
-1.84075e-05
-9.27396e-06
3.61378e-06
2.03449e-05
4.05456e-05
6.41099e-05
9.03786e-05
0.000118778
0.000148393
0.000178285
0.00020722
0.000233804
0.000256525
0.000273756
0.000283698
0.000284539
0.000274318
0.000251117
0.000212961
0.000157889
8.39763e-05
-1.07457e-05
-0.000128061
-0.000269841
-0.000437825
-0.000633701
-0.000859084
-0.00111551
-0.00140442
-0.00172722
-0.00208494
-0.00247858
-0.00290885
-0.00337622
-0.00388057
-0.00442178
-0.0049987
-0.00561007
-0.00625399
-0.00692711
-0.00762629
-0.00834696
-0.0090837
-0.00982982
-0.0105775
-0.0113174
-0.0120388
-0.0127298
-0.0133764
-0.0139632
-0.0144729
-0.0148879
-0.0151887
-0.0153544
-0.0153668
-0.015208
-0.0148613
-0.0143017
-0.0135603
-0.0125563
-0.0113118
-0.00998638
-0.00822094
-0.00643899
-0.00418588
-0.00185225
0.000684629
0.0034852
0.00707795
0.0108824
0.0150259
0.000109906
7.83697e-05
8.45055e-05
6.73481e-05
5.96425e-05
4.29872e-05
3.0939e-05
1.5583e-05
3.46945e-06
-8.98853e-06
-1.8413e-05
-2.6297e-05
-3.09841e-05
-3.29204e-05
-3.12495e-05
-2.61073e-05
-1.70442e-05
-4.20651e-06
1.24923e-05
3.26895e-05
5.62647e-05
8.25797e-05
0.000111058
0.000140806
0.000170896
0.000200122
0.000227113
0.000250418
0.000268444
0.000279481
0.000281775
0.000273488
0.000252821
0.000217943
0.000167052
9.84225e-05
1.03664e-05
-9.87426e-05
-0.000230379
-0.000386007
-0.000566958
-0.000774455
-0.00100951
-0.00127321
-0.00156639
-0.00188961
-0.00224335
-0.00262783
-0.00304296
-0.0034883
-0.00396315
-0.00446615
-0.00499588
-0.00555024
-0.0061262
-0.00672078
-0.0073298
-0.00794913
-0.00857282
-0.00919485
-0.0098077
-0.0104029
-0.0109715
-0.011503
-0.0119852
-0.012406
-0.0127511
-0.0130069
-0.0131578
-0.0131904
-0.0130923
-0.0128518
-0.0124451
-0.0119116
-0.0111875
-0.0102388
-0.00931097
-0.00799659
-0.00671976
-0.00502806
-0.00318516
-0.0011883
0.000718422
0.00336997
0.00644961
0.00994293
0.000105486
7.35262e-05
7.9436e-05
6.19419e-05
5.39563e-05
3.70323e-05
2.4713e-05
9.12064e-06
-3.22727e-06
-1.58823e-05
-2.55057e-05
-3.35555e-05
-3.83976e-05
-4.04659e-05
-3.89119e-05
-3.38702e-05
-2.48891e-05
-1.21208e-05
4.5237e-06
2.46937e-05
4.8254e-05
7.45864e-05
0.000103109
0.000132965
0.000163217
0.000192702
0.000220086
0.000243947
0.000262769
0.000274897
0.000278669
0.000272357
0.000254293
0.000222795
0.000176232
0.000113055
3.18611e-05
-6.875e-05
-0.000189964
-0.0003329
-0.000498502
-0.000687589
-0.000900862
-0.0011388
-0.00140178
-0.00169002
-0.0020033
-0.0023415
-0.00270397
-0.00308987
-0.00349816
-0.00392725
-0.0043755
-0.00484074
-0.00532021
-0.00581112
-0.00631023
-0.00681401
-0.00731765
-0.00781696
-0.00830631
-0.00877948
-0.00923076
-0.00965279
-0.0100368
-0.0103756
-0.0106593
-0.0108792
-0.0110258
-0.0110895
-0.0110635
-0.0109421
-0.0107021
-0.0103851
-0.00995602
-0.00931786
-0.00878241
-0.00792411
-0.00711622
-0.00606938
-0.00479607
-0.00342496
-0.00232246
-0.000339312
0.00212773
0.00488243
0.000101047
6.86445e-05
7.43318e-05
5.65074e-05
4.82469e-05
3.10518e-05
1.8466e-05
2.64095e-06
-9.94548e-06
-2.27978e-05
-3.26193e-05
-4.08431e-05
-4.58439e-05
-4.80529e-05
-4.66255e-05
-4.16956e-05
-3.28142e-05
-2.01309e-05
-3.56562e-06
1.65553e-05
4.0069e-05
6.63885e-05
9.49264e-05
0.000124853
0.000155238
0.00018495
0.000212697
0.000237101
0.000256701
0.000269928
0.000275206
0.000270923
0.000255523
0.000227493
0.000185393
0.000127873
5.37131e-05
-3.81301e-05
-0.000148608
-0.0002785
-0.000428348
-0.000598657
-0.000789655
-0.00100138
-0.00123379
-0.0014865
-0.00175897
-0.00205054
-0.00236016
-0.00268653
-0.00302839
-0.00338384
-0.00375106
-0.00412802
-0.00451216
-0.00490109
-0.00529203
-0.00568239
-0.00606877
-0.00644832
-0.00681762
-0.00717284
-0.0075109
-0.00782773
-0.00811871
-0.00838014
-0.00860802
-0.00879738
-0.00894439
-0.00904528
-0.00909641
-0.00909947
-0.00903327
-0.00893508
-0.0088066
-0.00848811
-0.00834407
-0.00795168
-0.00760924
-0.00717847
-0.00648613
-0.00585478
-0.00541845
-0.00403096
-0.0022445
-0.000306784
9.65751e-05
6.37202e-05
6.91927e-05
5.10421e-05
4.2507e-05
2.50505e-05
1.21959e-05
-3.86133e-06
-1.66838e-05
-2.97367e-05
-3.97566e-05
-4.81587e-05
-5.33263e-05
-5.56836e-05
-5.43924e-05
-4.95861e-05
-4.08249e-05
-2.82445e-05
-1.17801e-05
8.26143e-06
3.17023e-05
5.79771e-05
8.64968e-05
0.000116455
0.000146941
0.000176847
0.000204926
0.000229858
0.000250226
0.000264558
0.000271366
0.000269153
0.00025649
0.000232036
0.000194519
0.000142815
7.59327e-05
-6.90224e-06
-0.000106348
-0.000222872
-0.000356665
-0.000507821
-0.000676142
-0.000861297
-0.00106275
-0.00127966
-0.00151108
-0.00175589
-0.00201262
-0.00227969
-0.00255549
-0.00283793
-0.00312512
-0.00341507
-0.00370545
-0.00399425
-0.00427923
-0.00455887
-0.00483094
-0.00509404
-0.00534672
-0.00558737
-0.0058157
-0.0060304
-0.00623138
-0.00641824
-0.00659176
-0.00675168
-0.00689925
-0.00703602
-0.00716237
-0.0072874
-0.00739209
-0.00750712
-0.00767466
-0.00767845
-0.00791846
-0.00798348
-0.00808816
-0.00826535
-0.00803838
-0.00785964
-0.00801283
-0.00739115
-0.00644419
-0.00540246
9.2087e-05
5.87581e-05
6.40157e-05
4.55454e-05
3.67388e-05
1.9021e-05
5.90299e-06
-1.03852e-05
-2.3443e-05
-3.66976e-05
-4.69218e-05
-5.55021e-05
-6.08432e-05
-6.33565e-05
-6.22178e-05
-5.75471e-05
-4.89205e-05
-3.64687e-05
-2.01247e-05
-1.91162e-07
2.31445e-05
4.93411e-05
7.78082e-05
0.00010776
0.000138313
0.000168381
0.000196764
0.000222196
0.000243335
0.000258768
0.000267127
0.000267019
0.000257176
0.000236397
0.000203594
0.00015787
9.84725e-05
2.48617e-05
-6.3308e-05
-0.000166163
-0.000283588
-0.000415257
-0.000560614
-0.000718923
-0.00088917
-0.00107016
-0.00126052
-0.00145864
-0.00166281
-0.00187108
-0.00208148
-0.002292
-0.00250055
-0.00270509
-0.00290383
-0.00309479
-0.00327666
-0.00344862
-0.00360958
-0.00375961
-0.00389883
-0.00402788
-0.0041493
-0.00426411
-0.00437592
-0.00448845
-0.00460588
-0.00473285
-0.00487555
-0.00504027
-0.00523163
-0.00546616
-0.00572859
-0.00604009
-0.00648305
-0.00679798
-0.00739861
-0.00789299
-0.00838795
-0.00906032
-0.00913168
-0.0096045
-0.0104887
-0.01057
-0.0103759
-0.0101612
8.75466e-05
5.37522e-05
5.88002e-05
4.00128e-05
3.09386e-05
1.29667e-05
-4.16693e-07
-1.69321e-05
-3.02262e-05
-4.3682e-05
-5.41115e-05
-6.28767e-05
-6.83979e-05
-7.10771e-05
-7.00978e-05
-6.5581e-05
-5.71066e-05
-4.48041e-05
-2.86082e-05
-8.81012e-06
1.43876e-05
4.04716e-05
6.88444e-05
9.87591e-05
0.000129333
0.000159532
0.000188195
0.000214101
0.000235996
0.00025254
0.00026247
0.000264515
0.000257555
0.000240542
0.000212593
0.000173003
0.000121253
5.70793e-05
-1.95674e-05
-0.000108522
-0.000209307
-0.00032126
-0.000443454
-0.000574741
-0.000713729
-0.000858839
-0.00100826
-0.00116008
-0.00131226
-0.00146254
-0.00160876
-0.00174874
-0.0018804
-0.00200186
-0.0021114
-0.0022075
-0.00228947
-0.00235706
-0.00241043
-0.00245091
-0.00247998
-0.00250039
-0.00251667
-0.00253263
-0.00255464
-0.00258987
-0.00264626
-0.00273231
-0.00285888
-0.00303647
-0.00327419
-0.00359459
-0.00398865
-0.00446715
-0.00514689
-0.00574415
-0.00666992
-0.0075694
-0.00844901
-0.00966648
-0.0101293
-0.0111696
-0.0126822
-0.0134625
-0.0140393
-0.0146506
8.29625e-05
4.87012e-05
5.35432e-05
3.44451e-05
2.51069e-05
6.88341e-06
-6.7597e-06
-2.35023e-05
-3.70323e-05
-5.0691e-05
-6.13292e-05
-7.02832e-05
-7.59896e-05
-7.88443e-05
-7.80379e-05
-7.36915e-05
-6.53872e-05
-5.32561e-05
-3.72355e-05
-1.76052e-05
5.426e-06
3.13559e-05
5.9601e-05
8.94331e-05
0.000119994
0.000150286
0.000179197
0.000205559
0.000228195
0.00024586
0.000257376
0.000261624
0.000257606
0.00024445
0.000221462
0.000188142
0.000144219
8.96754e-05
2.47339e-05
-5.00981e-05
-0.000134078
-0.000226174
-0.000325098
-0.000429329
-0.000537164
-0.000646585
-0.000755513
-0.000861673
-0.000962723
-0.00105622
-0.00113981
-0.00121122
-0.0012683
-0.00130924
-0.00133265
-0.00133731
-0.00132305
-0.00129023
-0.00123996
-0.00117461
-0.00109684
-0.00101133
-0.000923808
-0.000840809
-0.000771051
-0.000724062
-0.000711186
-0.000744272
-0.000837658
-0.00100599
-0.00126221
-0.00163353
-0.00211868
-0.00271939
-0.00357842
-0.00440941
-0.00560667
-0.00687313
-0.00812274
-0.00992599
-0.0106701
-0.0123154
-0.0144989
-0.0159299
-0.0171826
-0.0184952
7.83224e-05
4.35982e-05
4.82403e-05
2.88411e-05
1.92411e-05
7.70274e-07
-1.31305e-05
-3.00965e-05
-4.3863e-05
-5.77245e-05
-6.85743e-05
-7.77225e-05
-8.36214e-05
-8.66614e-05
-8.60414e-05
-8.188e-05
-7.37677e-05
-6.18301e-05
-4.60116e-05
-2.65818e-05
-3.75334e-06
2.19846e-05
5.00622e-05
7.97724e-05
0.00011028
0.000140628
0.000169753
0.000196551
0.000219914
0.000238693
0.000251821
0.000258307
0.000257294
0.000248079
0.000230153
0.00020323
0.000167272
0.000122504
6.94377e-05
8.84006e-06
-5.82238e-05
-0.000130394
-0.00020607
-0.000283394
-0.000360322
-0.000434549
-0.00050363
-0.000565055
-0.000616243
-0.000654517
-0.000677428
-0.000682595
-0.000667875
-0.000631552
-0.000572447
-0.00048966
-0.0003834
-0.000254594
-0.000105027
6.20915e-05
0.000243154
0.000431953
0.00062189
0.000804351
0.000969105
0.00110448
0.00119718
0.0012325
0.00119359
0.00106244
0.000823673
0.000446478
-7.57003e-05
-0.000737521
-0.00169719
-0.00268398
-0.00406306
-0.00560268
-0.00713696
-0.0094316
-0.0105198
-0.0127493
-0.0155971
-0.0177071
-0.0196374
-0.0215894
7.36209e-05
3.84481e-05
4.28926e-05
2.31951e-05
1.33415e-05
-5.3725e-06
-1.95293e-05
-3.67172e-05
-5.07168e-05
-6.47847e-05
-7.58474e-05
-8.51931e-05
-9.12942e-05
-9.45285e-05
-9.4109e-05
-9.01472e-05
-8.22489e-05
-7.05304e-05
-5.49437e-05
-3.57461e-05
-1.31579e-05
1.235e-05
4.02183e-05
6.97626e-05
0.00010018
0.000130543
0.000159848
0.000187058
0.000211135
0.00023103
0.000245786
0.000254535
0.000256585
0.000251379
0.000238612
0.000218184
0.000190303
0.00015542
0.000114309
6.7998e-05
1.78855e-05
-3.4426e-05
-8.70104e-05
-0.000137731
-0.00018421
-0.000223916
-0.000254114
-0.000272027
-0.000274929
-0.000259999
-0.000224595
-0.000166369
-8.32141e-05
2.65708e-05
0.000164021
0.000329701
0.000523121
0.000742959
0.000986912
0.00125119
0.00153133
0.00182054
0.00211131
0.00239388
0.00265708
0.00288789
0.00307184
0.0031925
0.00323174
0.00316946
0.00298923
0.0026582
0.00216326
0.00151495
0.000549336
-0.000488256
-0.0019286
-0.00359918
-0.00530197
-0.00788838
-0.00927431
-0.0120223
-0.0153954
-0.0180889
-0.0206194
-0.0231339
6.88704e-05
3.32383e-05
3.74966e-05
1.75088e-05
7.40376e-06
-1.15461e-05
-2.59569e-05
-4.33626e-05
-5.7598e-05
-7.18695e-05
-8.31503e-05
-9.26987e-05
-9.90086e-05
-0.000102449
-0.000102242
-9.84999e-05
-9.08354e-05
-7.93628e-05
-6.40375e-05
-4.51055e-05
-2.27962e-05
2.443e-06
3.00565e-05
5.93928e-05
8.96742e-05
0.000120015
0.000149469
0.000177061
0.000201837
0.000222845
0.000239241
0.000250283
0.000255433
0.000254304
0.00024675
0.000232902
0.000213172
0.000188234
0.000159112
0.000127096
9.38316e-05
6.11955e-05
3.13959e-05
6.81095e-06
-9.93796e-06
-1.60343e-05
-8.57801e-06
1.54057e-05
5.88399e-05
0.000124622
0.000215422
0.00033371
0.000481495
0.000660468
0.000871413
0.00111481
0.00138988
0.00169511
0.00202781
0.00238393
0.00275842
0.00314439
0.00353367
0.00391637
0.00428065
0.00461326
0.00489931
0.00512196
0.00526306
0.00530191
0.00522183
0.00499042
0.00459005
0.00403481
0.00316487
0.00219522
0.000830689
-0.000791107
-0.00250151
-0.00510204
-0.00661517
-0.00978297
-0.013674
-0.0168967
-0.0198886
-0.0226859
6.405e-05
2.79802e-05
3.20484e-05
1.17796e-05
1.42782e-06
-1.77539e-05
-3.24124e-05
-5.00357e-05
-6.45029e-05
-7.8982e-05
-9.04814e-05
-0.00010024
-0.000106765
-0.000110422
-0.000110443
-0.00010694
-9.95313e-05
-8.83319e-05
-7.32977e-05
-5.46665e-05
-3.26759e-05
-7.75032e-06
1.95676e-05
4.86503e-05
7.87511e-05
0.000109031
0.0001386
0.000166545
0.000192003
0.000214117
0.000232159
0.000245518
0.000253796
0.000256779
0.00025449
0.00024727
0.00023571
0.000220724
0.000203555
0.000185737
0.000169121
0.000155855
0.000148348
0.000149226
0.00016131
0.000187621
0.000231221
0.000295184
0.000382583
0.000496391
0.000639333
0.000813802
0.00102192
0.00126512
0.00154424
0.00185954
0.00221006
0.0025943
0.00300937
0.00345108
0.00391428
0.00439217
0.00487649
0.00535759
0.00582393
0.0062627
0.00665935
0.00699815
0.00726135
0.00742937
0.00748659
0.00740312
0.00715889
0.00677037
0.00608955
0.0053019
0.00414563
0.0027495
0.00119627
-0.00111769
-0.00272774
-0.00605041
-0.0100138
-0.0134562
-0.0167164
-0.019747
5.91555e-05
2.26739e-05
2.65454e-05
6.00477e-06
-4.58677e-06
-2.39962e-05
-3.89007e-05
-5.67354e-05
-7.14371e-05
-8.61208e-05
-9.7844e-05
-0.000107815
-0.000114566
-0.000118451
-0.000118715
-0.00011547
-0.000108341
-9.74411e-05
-8.27307e-05
-6.44405e-05
-4.28049e-05
-1.82366e-05
8.74102e-06
3.75227e-05
6.73994e-05
9.75777e-05
0.000127221
0.000155491
0.000181609
0.00020482
0.000224505
0.00024019
0.000251621
0.00025873
0.000261735
0.000261141
0.000257738
0.000252657
0.000247311
0.000243482
0.00024321
0.000248841
0.000262983
0.000288448
0.000328217
0.000385445
0.000463321
0.000565045
0.000693719
0.000852336
0.00104368
0.00127007
0.00153355
0.00183554
0.0021768
0.00255753
0.00297666
0.00343267
0.00392274
0.0044428
0.00498775
0.0055512
0.00612539
0.00670103
0.00726773
0.00781356
0.00832518
0.00878856
0.0091876
0.00950495
0.00972699
0.00982735
0.0097861
0.00962172
0.00920265
0.00868751
0.00784594
0.00681972
0.00557509
0.00380867
0.00237719
-0.00091329
-0.00484901
-0.0083113
-0.0115146
-0.0143853
5.41797e-05
1.7308e-05
2.09889e-05
1.83195e-07