/*--------------------------------*- C++ -*----------------------------------*\
  =========                 |
  \\      /  F ield         | OpenFOAM: The Open Source CFD Toolbox
   \\    /   O peration     | Website:  https://openfoam.org
    \\  /    A nd           | Version:  9
     \\/     M anipulation  |
\*---------------------------------------------------------------------------*/
FoamFile
{
    format      ascii;
    class       surfaceScalarField;
    location    "750";
    object      phi;
}
// * * * * * * * * * * * * * * * * * * * * * * * * * * * * * * * * * * * * * //

dimensions      [0 3 -1 0 0 0 0];

internalField   nonuniform List<scalar> 
26965
(
3.4346e-05
0.490614
-0.490648
3.4154e-05
0.462923
-0.462923
3.40115e-05
0.436729
-0.436729
3.38821e-05
0.411984
-0.411984
3.37638e-05
0.388687
-0.388686
3.3658e-05
0.366703
-0.366702
3.3558e-05
0.345927
-0.345927
6.80347e-05
0.326327
-0.326362
6.79437e-05
0.307868
-0.307868
3.32836e-05
0.290481
-0.290446
6.77609e-05
0.273993
-0.274027
6.76655e-05
0.258507
-0.258507
6.75622e-05
0.243851
-0.243851
0.000102023
0.23006
-0.230095
6.73296e-05
0.217064
-0.21703
8.79381e-05
0.204757
-0.204777
9.47027e-05
0.193172
-0.193179
9.79948e-05
0.182244
-0.182247
0.000108181
0.171928
-0.171938
0.000111435
0.162203
-0.162206
0.000121583
0.153021
-0.153031
0.000128251
0.144365
-0.144372
0.000134899
0.136196
-0.136203
0.000141529
0.128494
-0.128501
0.000155051
0.121221
-0.121234
0.000161647
0.114366
-0.114373
0.000171686
0.107898
-0.107909
0.00018518
0.101794
-0.101808
0.000195211
0.0960392
-0.0960492
0.000205256
0.0906095
-0.0906195
0.000218773
0.0854878
-0.0855013
0.000232315
0.0806533
-0.0806669
0.000245889
0.0760994
-0.0761129
0.000259521
0.0717982
-0.0718118
0.000276673
0.0677429
-0.06776
0.000293903
0.0639197
-0.063937
0.000311231
0.0603149
-0.0603322
0.000328664
0.0569111
-0.0569285
0.00034623
0.0537013
-0.0537188
0.000367407
0.0506752
-0.0506963
0.000392219
0.0478188
-0.0478436
0.000413752
0.0451322
-0.0451537
0.000438965
0.0425909
-0.0426161
0.00046789
0.040195
-0.0402239
0.000493603
0.0379373
-0.037963
0.00052308
0.0358073
-0.0358368
0.000552879
0.0337981
-0.0338279
0.00058651
0.0319025
-0.0319361
0.000620533
0.0301134
-0.0301474
0.000651509
0.0284273
-0.0284583
0.00068992
0.0268337
-0.0268721
0.000725375
0.0253324
-0.0253679
0.000768379
0.0239095
-0.0239525
0.000805039
0.0225752
-0.0226119
0.00084939
0.0213063
-0.0213507
0.000892728
0.0201139
-0.0201572
0.000938
0.0189855
-0.0190308
0.00098455
0.0179201
-0.0179666
0.00103252
0.0169132
-0.0169611
0.00108166
0.0159618
-0.016011
0.0011325
0.0150623
-0.0151131
0.00118449
0.0142124
-0.0142644
0.00123827
0.0134088
-0.0134626
0.00129306
0.0126494
-0.0127042
0.00135015
0.0119309
-0.011988
0.00140919
0.0112516
-0.0113106
0.00147001
0.01061
-0.0106708
0.00153347
0.0100025
-0.0100659
0.00159992
0.00942879
-0.00949525
0.00167
0.00888588
-0.00895596
0.00174321
0.00837274
-0.00844596
0.00182054
0.00788677
-0.0079641
0.00190212
0.00742601
-0.0075076
0.00198785
0.00698879
-0.00707451
0.00207754
0.00657261
-0.00666231
0.00217066
0.00617386
-0.00626698
0.0022658
0.00579169
-0.00588683
0.00236074
0.00542271
-0.00551765
0.00245284
0.00506354
-0.00515564
0.00253706
0.00471247
-0.0047967
0.00260976
0.00436506
-0.00443776
0.00266955
0.00402253
-0.00408232
0.00271069
0.00368877
-0.00372991
0.00273084
0.00336209
-0.00338224
0.00271584
0.00304129
-0.00302629
0.00271314
-0.00263688
3.43433e-05
0.490579
3.41524e-05
0.462924
3.40103e-05
0.436729
3.38808e-05
0.411984
3.37636e-05
0.388687
6.8228e-05
0.366668
6.81292e-05
0.345927
3.34672e-05
0.326362
3.33772e-05
0.307868
6.78581e-05
0.290446
6.77671e-05
0.273993
6.76732e-05
0.258507
6.75727e-05
0.243851
6.74637e-05
0.23006
0.000101915
0.21703
8.44966e-05
0.204774
8.78055e-05
0.193168
9.80121e-05
0.182234
0.000101287
0.171925
0.000111455
0.162193
0.00011469
0.153018
0.000121357
0.144358
0.000128007
0.136189
0.000138089
0.128484
0.0001447
0.121214
0.000154753
0.114356
0.000164791
0.107888
0.000174824
0.101784
0.000184857
0.0960292
0.000198351
0.090596
0.000208405
0.0854777
0.000221944
0.0806398
0.000235525
0.0760858
0.000249146
0.0717845
0.00026284
0.0677292
0.000280069
0.0639025
0.000300862
0.0602941
0.000318303
0.0568936
0.000335869
0.0536837
0.000357059
0.050654
0.000374946
0.0478009
0.00039996
0.0451072
0.000425188
0.0425657
0.000447187
0.040173
0.000472919
0.0379115
0.000498943
0.0357813
0.000528763
0.0337682
0.00055894
0.0318723
0.000589506
0.0300828
0.000623983
0.0283929
0.000658925
0.0267988
0.000694391
0.025297
0.000726924
0.023877
0.000767024
0.0225351
0.000806067
0.0212673
0.000846581
0.0200733
0.000887868
0.0189442
0.000930411
0.0178775
0.000974272
0.0168693
0.00101926
0.0159169
0.00106488
0.0150167
0.00111183
0.0141655
0.00115964
0.013361
0.00120933
0.0125997
0.0012598
0.0118804
0.00131188
0.0111995
0.00136592
0.0105559
0.00142136
0.00994701
0.00147972
0.00937044
0.00154016
0.00882544
0.00160414
0.00830877
0.00167119
0.00781972
0.00174092
0.00735627
0.00181455
0.00691516
0.00189124
0.00649592
0.00196911
0.006096
0.00204876
0.00571204
0.00212778
0.00534369
0.0022034
0.00498793
0.00227311
0.00464276
0.0023322
0.00430597
0.00237841
0.00397632
0.00240939
0.00365779
0.00242296
0.00334851
0.00241323
0.00305103
0.00275652
3.43419e-05
0.490545
3.41498e-05
0.462924
3.40073e-05
0.436729
3.38778e-05
0.411984
3.37609e-05
0.388687
3.36565e-05
0.366668
3.35582e-05
0.345927
6.80369e-05
0.326328
6.79472e-05
0.307868
6.78596e-05
0.290446
6.77708e-05
0.273993
6.76761e-05
0.258507
6.75769e-05
0.243852
6.7468e-05
0.23006
6.73504e-05
0.21703
8.45044e-05
0.204757
9.12718e-05
0.193162
9.45645e-05
0.18223
0.000101297
0.171918
0.000104552
0.16219
0.000114699
0.153008
0.00012137
0.144352
0.000128014
0.136183
0.000138101
0.128474
0.000144707
0.121208
0.000154758
0.114346
0.000164793
0.107878
0.000171365
0.101778
0.00018485
0.0960157
0.000191429
0.0905894
0.000208396
0.0854608
0.000218471
0.0806297
0.000232045
0.0760722
0.000245673
0.0717709
0.000259361
0.0677155
0.000276596
0.0638853
0.000290458
0.0602802
0.000307903
0.0568762
0.000328945
0.0536627
0.000346673
0.0506362
0.000368039
0.0477796
0.0003896
0.0450856
0.000411385
0.0425439
0.000436873
0.0401475
0.000459159
0.0378892
0.000488688
0.0357518
0.000515064
0.0337419
0.000541794
0.0318455
0.000572391
0.0300522
0.000603415
0.0283618
0.000634906
0.0267673
0.000666887
0.025265
0.000702917
0.0238409
0.000739554
0.0224985
0.000774739
0.0212321
0.000812015
0.0200361
0.000850421
0.0189058
0.000890039
0.0178379
0.000929872
0.0168295
0.00097041
0.0158763
0.00101243
0.0149747
0.00105472
0.0141232
0.00109818
0.0133176
0.00114199
0.0125559
0.00118689
0.0118355
0.001233
0.0111534
0.00128031
0.0105086
0.00132921
0.00989811
0.00137992
0.00931973
0.00143266
0.0087727
0.00148747
0.00825396
0.00154476
0.00776243
0.00160534
0.0072957
0.00166722
0.00685328
0.00173235
0.00643079
0.00179899
0.00602935
0.00186581
0.00564523
0.00193198
0.00527751
0.0019944
0.0049255
0.0020518
0.00458537
0.00210087
0.0042569
0.00213766
0.00393953
0.00216166
0.00363379
0.00217061
0.00333956
0.00216324
0.0030584
0.00278917
3.434e-05
0.490511
3.41454e-05
0.462924
6.85701e-05
0.436695
3.3872e-05
0.412019
6.83234e-05
0.388652
3.36498e-05
0.366703
6.81219e-05
0.345893
3.34605e-05
0.326362
3.3373e-05
0.307868
6.7855e-05
0.290412
3.31959e-05
0.274027
6.76744e-05
0.258473
6.7575e-05
0.243852
6.74682e-05
0.230061
6.73489e-05
0.21703
8.45037e-05
0.20474
8.78156e-05
0.193158
9.45676e-05
0.182224
0.000101299
0.171911
0.000108011
0.162183
0.000114701
0.153001
0.000121367
0.144345
0.000128014
0.136176
0.000134638
0.128467
0.0001447
0.121198
0.000151286
0.114339
0.00016132
0.107868
0.000171343
0.101768
0.000181368
0.0960057
0.000194858
0.0905759
0.000204904
0.0854507
0.000214976
0.0806197
0.00022855
0.0760586
0.000245632
0.0717538
0.000259319
0.0677018
0.000273092
0.0638715
0.000290426
0.0602629
0.000307871
0.0568587
0.000325461
0.0536451
0.000343196
0.0506185
0.000364582
0.0477582
0.000386167
0.045064
0.000407968
0.0425221
0.000430021
0.0401254
0.00045581
0.0378635
0.000478427
0.0357292
0.000504844
0.0337155
0.000535096
0.0318153
0.000562259
0.0300251
0.000589842
0.0283343
0.000621367
0.0267358
0.000656882
0.0252295
0.000689444
0.0238084
0.000719119
0.0224688
0.000754283
0.0211969
0.000789463
0.0200009
0.000825023
0.0188703
0.000861018
0.0178019
0.000897908
0.0167926
0.000935789
0.0158384
0.00097326
0.0149372
0.00101138
0.0140851
0.00105006
0.0132789
0.00108951
0.0125164
0.00112945
0.0117956
0.00116993
0.0111129
0.00121171
0.0104669
0.00125424
0.00985557
0.00129802
0.00927596
0.00134339
0.00872733
0.00139068
0.00820666
0.00143991
0.00771321
0.00149077
0.00724484
0.00154434
0.00679971
0.00159867
0.00637646
0.00165401
0.005974
0.00170986
0.00558937
0.0017647
0.00522267
0.00181692
0.00487329
0.00186363
0.00453866
0.00190328
0.00421725
0.00193358
0.00390922
0.00195149
0.00361588
0.00195678
0.00333427
0.00194768
0.0030675
0.00281536
-2.29073e-07
0.490511
3.4139e-05
0.46289
3.39943e-05
0.436695
3.38628e-05
0.412019
3.37448e-05
0.388652
6.82087e-05
0.366668
3.35411e-05
0.345928
6.80204e-05
0.326328
6.79316e-05
0.307869
3.32754e-05
0.290447
6.77568e-05
0.273993
6.76648e-05
0.258473
6.7566e-05
0.243852
6.74597e-05
0.230061
0.000101914
0.216996
8.44985e-05
0.204757
9.1265e-05
0.193152
9.45577e-05
0.18222
0.00010129
0.171904
0.000108001
0.162176
0.000114687
0.152994
0.000121355
0.144338
0.000131453
0.136166
0.000138076
0.128461
0.000144675
0.121191
0.000154716
0.114329
0.000164745
0.107858
0.000174766
0.101758
0.000184786
0.0959956
0.000194807
0.0905659
0.000204848
0.0854407
0.000221839
0.0806027
0.000235401
0.0760451
0.000245563
0.0717437
0.000262715
0.0676847
0.000276484
0.0638577
0.000293821
0.0602456
0.000311279
0.0568413
0.000328875
0.0536275
0.000346634
0.0506007
0.000368036
0.0477368
0.000386177
0.0450459
0.000408011
0.0425003
0.000433567
0.0400999
0.000455929
0.0378411
0.000482067
0.035703
0.000508536
0.033689
0.000531889
0.0317919
0.000562588
0.0299944
0.000590233
0.0283066
0.000618336
0.0267077
0.000646937
0.0252009
0.000679549
0.0237757
0.000712706
0.0224357
0.000744071
0.0211656
0.000776782
0.0199682
0.000810185
0.0188369
0.000843662
0.0177684
0.000877635
0.0167586
0.000911789
0.0158043
0.000945909
0.0149031
0.000980745
0.0140502
0.00101579
0.0132438
0.00105051
0.0124817
0.0010857
0.0117604
0.00112132
0.0110773
0.0011575
0.0104307
0.00119443
0.00981864
0.00123211
0.00923827
0.00127114
0.0086883
0.00131125
0.00816656
0.00135293
0.00767152
0.00139583
0.00720195
0.00144015
0.00675538
0.0014854
0.00633122
0.00153188
0.00592753
0.00157826
0.00554299
0.00162271
0.00517822
0.00166503
0.00483097
0.00170296
0.00450074
0.00173454
0.00418566
0.00175831
0.00388546
0.00177393
0.00360026
0.0017766
0.0033316
0.00176658
0.00307752
0.00283893
3.43331e-05
0.490477
3.41312e-05
0.46289
3.39836e-05
0.436695
6.84197e-05
0.411985
3.37309e-05
0.388687
3.36253e-05
0.366669
3.35265e-05
0.345928
3.34352e-05
0.326328
6.7916e-05
0.307834
6.78297e-05
0.290447
6.77416e-05
0.273993
6.76498e-05
0.258473
6.75524e-05
0.243852
0.000102016
0.230026
6.73276e-05
0.21703
8.79384e-05
0.204737
9.12498e-05
0.193148
9.80007e-05
0.182214
0.00010473
0.171898
0.000111437
0.16217
0.000118124
0.152988
0.000128242
0.144328
0.000134883
0.136159
0.000141499
0.128454
0.000151555
0.121181
0.00016159
0.114319
0.000168155
0.107852
0.000181625
0.101744
0.000188179
0.0959891
0.000201657
0.0905524
0.000215152
0.0854272
0.000225213
0.0805926
0.000238779
0.0760315
0.000252394
0.07173
0.000266083
0.067671
0.000283315
0.0638405
0.000300658
0.0602282
0.000318128
0.0568238
0.000335737
0.0536099
0.000356975
0.0505795
0.000374938
0.0477188
0.000396576
0.0450242
0.000418447
0.0424784
0.000437102
0.0400812
0.000462985
0.0378152
0.000489178
0.0356768
0.000512232
0.0336659
0.000542605
0.0317616
0.000566419
0.0299706
0.000594131
0.0282789
0.000625783
0.026676
0.000654444
0.0251722
0.000680132
0.0237501
0.000713373
0.0224024
0.000743016
0.0211359
0.000773977
0.0199372
0.000804925
0.0188059
0.000836261
0.0177371
0.000867656
0.0167272
0.00089881
0.0157731
0.000930247
0.0148716
0.000961262
0.0140192
0.000992292
0.0132128
0.00102319
0.0124508
0.00105412
0.0117295
0.00108515
0.0110463
0.00111605
0.0103998
0.00114769
0.00978701
0.00117968
0.00920627
0.00121253
0.00865546
0.00124588
0.0081332
0.00128046
0.00763694
0.00131609
0.00716631
0.00135264
0.00671883
0.00139037
0.00629349
0.00142826
0.00588964
0.00146558
0.00550567
0.00150191
0.0051419
0.00153634
0.00479654
0.00156645
0.00447063
0.00159232
0.00415979
0.00161172
0.00386606
0.00162192
0.00359006
0.00162397
0.00332955
0.00161478
0.00308671
0.00285975
3.43282e-05
0.490442
3.41215e-05
0.46289
3.3971e-05
0.436695
3.38361e-05
0.411985
3.37146e-05
0.388687
3.36077e-05
0.366669
6.80768e-05
0.345893
6.79851e-05
0.326328
3.33263e-05
0.307869
6.78096e-05
0.290412
6.77205e-05
0.273993
6.76297e-05
0.258473
6.75312e-05
0.243852
6.7425e-05
0.230026
0.000101878
0.216996
9.13746e-05
0.204747
9.81412e-05
0.193142
0.000104889
0.182207
0.000111617
0.171891
0.000118324
0.162163
0.000125007
0.152981
0.000131666
0.144321
0.000138301
0.136153
0.00014837
0.128444
0.000158417
0.121171
0.00016499
0.114313
0.000178462
0.107838
0.00018501
0.101737
0.00020193
0.0959722
0.000211942
0.0905424
0.000221973
0.0854171
0.000235488
0.0805791
0.000249044
0.0760179
0.000266122
0.071713
0.000279806
0.0676573
0.000297051
0.0638233
0.000310936
0.0602143
0.000328411
0.0568063
0.000349499
0.0535888
0.000367297
0.0505617
0.000388753
0.0476973
0.000410425
0.0450026
0.00043234
0.0424565
0.000454518
0.040059
0.000480456
0.0377893
0.000503239
0.035654
0.000529838
0.0336393
0.00055333
0.0317381
0.000580699
0.0299432
0.000608493
0.0282511
0.00063327
0.0266512
0.000661992
0.0251435
0.000694742
0.0237173
0.00072106
0.0223761
0.000750387
0.0211066
0.000779259
0.0199083
0.000808462
0.0187767
0.000837633
0.0177079
0.000866498
0.0166984
0.000895063
0.0157446
0.000923433
0.0148433
0.000951619
0.013991
0.000979069
0.0131854
0.00100625
0.0124236
0.00103319
0.0117025
0.0010599
0.0110196
0.00108623
0.0103735
0.00111271
0.00976052
0.00113897
0.00918002
0.00116569
0.00862874
0.00119341
0.00810548
0.0012214
0.00760895
0.00125022
0.00713749
0.00127968
0.00668937
0.00130964
0.00626353
0.00133972
0.00585956
0.00137018
0.00547521
0.00139928
0.00511279
0.00142562
0.0047702
0.00145023
0.00444603
0.0014697
0.00414031
0.00148479
0.00385098
0.00149309
0.00358176
0.0014926
0.00333004
0.00148349
0.00309581
0.00287819
6.8889e-05
0.490373
3.41099e-05
0.462925
3.39564e-05
0.436695
3.38183e-05
0.411985
6.82637e-05
0.388653
6.81548e-05
0.366669
6.80533e-05
0.345893
6.79607e-05
0.326328
6.78718e-05
0.307869
6.77841e-05
0.290412
6.76956e-05
0.273993
6.76027e-05
0.258473
0.000102076
0.243817
0.000101968
0.230026
6.72786e-05
0.217031
9.82608e-05
0.204716
0.000105026
0.193135
0.000111773
0.1822
0.000115041
0.171888
0.000125202
0.162153
0.00013188
0.152974
0.000138535
0.144315
0.000148622
0.136143
0.000158685
0.128434
0.000168726
0.121161
0.000178747
0.114303
0.000185297
0.107832
0.000202214
0.101721
0.000208751
0.0959656
0.000222213
0.090529
0.000239153
0.0854002
0.000249201
0.080569
0.000266218
0.0760009
0.000279827
0.0716994
0.000296981
0.0676401
0.000310757
0.0638095
0.00033158
0.0601935
0.000349068
0.0567888
0.000366714
0.0535711
0.000388002
0.0505404
0.000406025
0.0476793
0.000427735
0.0449809
0.000449691
0.0424345
0.000475394
0.0400333
0.000497925
0.0377667
0.000520776
0.0356312
0.000547453
0.0336127
0.000574505
0.031711
0.00060196
0.0299157
0.000629848
0.0282232
0.000654705
0.0266264
0.00068354
0.0251147
0.000709382
0.0236915
0.000739248
0.0223463
0.000765497
0.0210804
0.000793365
0.0198805
0.000820808
0.0187493
0.000847825
0.0176809
0.000874477
0.0166717
0.00090046
0.0157186
0.000926115
0.0148176
0.000950847
0.0139663
0.00097473
0.0131615
0.000998382
0.0124
0.00102153
0.0116794
0.00104349
0.0109976
0.00106559
0.0103514
0.001087
0.00973911
0.00110868
0.00915833
0.00112983
0.0086076
0.00115111
0.0080842
0.00117307
0.007587
0.00119564
0.00711492
0.00121825
0.00666676
0.0012414
0.00624038
0.00126515
0.00583581
0.00128743
0.00545293
0.00130993
0.0050903
0.00133091
0.00474922
0.00134853
0.00442841
0.00136463
0.00412421
0.00137476
0.00384085
0.00137939
0.00357712
0.00137862
0.00333081
0.00137095
0.00310349
0.00289501
3.4316e-05
0.490339
6.8665e-05
0.46289
6.85074e-05
0.436696
6.83668e-05
0.411985
3.36716e-05
0.388687
6.81292e-05
0.366634
3.34574e-05
0.345928
6.79332e-05
0.326294
6.78427e-05
0.307869
6.77544e-05
0.290412
0.000102235
0.273959
0.000102142
0.258473
6.74716e-05
0.243852
6.73642e-05
0.230027
0.000101816
0.216996
0.000105139
0.204713
0.000111903
0.193128
0.000118647
0.182193
0.000128829
0.171877
0.000132068
0.162149
0.000142203
0.152964
0.000152309
0.144305
0.000162391
0.136133
0.000168989
0.128427
0.000179024
0.121151
0.000189037
0.114293
0.000202496
0.107818
0.000212482
0.101711
0.000225929
0.0959522
0.000239382
0.0905155
0.000252857
0.0853867
0.000269819
0.0805521
0.000283365
0.0759874
0.000296979
0.0716857
0.000314124
0.067623
0.000334838
0.0637888
0.000348738
0.0601796
0.000369708
0.0567679
0.000387373
0.0535535
0.000408686
0.0505191
0.000433674
0.0476543
0.000455431
0.0449591
0.000477447
0.0424125
0.00050321
0.0400076
0.00052581
0.0377441
0.000552214
0.0356048
0.0005755
0.0335894
0.000602647
0.0316839
0.000626718
0.0298917
0.000654706
0.0281952
0.00068314
0.0265979
0.000708583
0.0250892
0.000734519
0.0236655
0.000760966
0.0223198
0.000788657
0.0210527
0.000814477
0.0198547
0.000840163
0.0187236
0.000865062
0.017656
0.000889509
0.0166473
0.000912864
0.0156952
0.000935802
0.0147947
0.00095736
0.0139447
0.00097863
0.0131402
0.000998715
0.0123799
0.0010177
0.0116604
0.00103577
0.0109795
0.00105344
0.0103337
0.00107013
0.00972243
0.00108658
0.00914188
0.00110269
0.00859148
0.00111844
0.00806845
0.00113419
0.00757126
0.00115012
0.00709898
0.00116661
0.00665027
0.00118341
0.00622358
0.0012001
0.00581912
0.00121698
0.00543605
0.00123305
0.00507423
0.0012481
0.00473417
0.00126245
0.00441406
0.00127271
0.00411396
0.00127873
0.00383483
0.00128249
0.00357336
0.00128147
0.00333183
0.00127278
0.00311217
0.00291178
3.43086e-05
0.490305
3.40822e-05
0.462891
3.39196e-05
0.436696
3.37746e-05
0.411985
6.82138e-05
0.388653
3.35312e-05
0.366669
6.79956e-05
0.345894
6.78997e-05
0.326294
6.7808e-05
0.307869
6.77188e-05
0.290413
6.7629e-05
0.273959
6.75349e-05
0.258473
0.000102006
0.243818
0.000101897
0.230027
0.000101775
0.216996
0.000112012
0.204703
0.000122231
0.193118
0.000128971
0.182187
0.000135692
0.171871
0.000145847
0.162139
0.000152514
0.152958
0.000162618
0.144295
0.000172691
0.136123
0.000186197
0.128414
0.000192764
0.121144
0.000206229
0.114279
0.000219674
0.107805
0.000229654
0.101701
0.000246553
0.0959353
0.000259997
0.0905021
0.000273459
0.0853733
0.000286956
0.0805386
0.000303961
0.0759704
0.000321025
0.0716687
0.000341637
0.0676024
0.00035543
0.063775
0.000379729
0.0601553
0.000397251
0.0567503
0.000418409
0.0535323
0.000443219
0.0504943
0.000461316
0.0476362
0.000486588
0.0449338
0.000508656
0.0423904
0.000531019
0.0399852
0.000557166
0.037718
0.000583654
0.0355783
0.000610508
0.0335625
0.000634276
0.0316601
0.000661932
0.029864
0.000686538
0.0281706
0.000715088
0.0265694
0.000740617
0.0250637
0.000766639
0.0236395
0.000793173
0.0222933
0.000817778
0.0210281
0.000842599
0.0198298
0.00086653
0.0186997
0.000889626
0.0176329
0.000911511
0.0166254
0.000932976
0.0156738
0.000952554
0.0147751
0.00097164
0.0139256
0.00098933
0.0131225
0.0010058
0.0123634
0.00102097
0.0116452
0.00103551
0.010965
0.00104838
0.0103208
0.00106045
0.00971035
0.00107185
0.00913048
0.00108274
0.00858059
0.00109295
0.00805824
0.00110313
0.00756108
0.00111303
0.00708908
0.00112321
0.00664009
0.00113368
0.00621311
0.0011445
0.00580829
0.00115558
0.00542498
0.00116621
0.00506359
0.00117674
0.00472364
0.00118528
0.00440551
0.00119176
0.00410748
0.00119649
0.0038301
0.00119922
0.00357063
0.00119721
0.00333384
0.00118802
0.00312137
0.00293063
3.43004e-05
0.49027
3.40658e-05
0.462891
6.84663e-05
0.436661
6.83173e-05
0.411985
6.81841e-05
0.388653
6.80674e-05
0.366669
6.79603e-05
0.345894
6.78634e-05
0.326294
0.000102339
0.307834
0.000102249
0.290413
0.000102158
0.273959
0.000102064
0.258473
0.000101963
0.243818
0.000136423
0.229992
0.000136301
0.216996
0.000125793
0.204713
0.000132551
0.193111
0.000139292
0.18218
0.000149464
0.171861
0.000159612
0.162129
0.000169735
0.152947
0.000179831
0.144284
0.000189899
0.136112
0.00019994
0.128404
0.000213414
0.121131
0.000226869
0.114266
0.000236846
0.107795
0.000253733
0.101684
0.000263699
0.0959253
0.000280592
0.0904852
0.000297504
0.0853564
0.000314454
0.0805216
0.000331453
0.0759534
0.000351979
0.0716482
0.000369135
0.0675852
0.000389854
0.0637543
0.000407248
0.0601379
0.000431714
0.0567259
0.000452892
0.0535111
0.000474278
0.0504729
0.000499346
0.0476112
0.000521205
0.044912
0.000546806
0.0423648
0.000572708
0.0399593
0.000598938
0.0376918
0.000622045
0.0355552
0.000648997
0.0335356
0.000676342
0.0316328
0.000700629
0.0298397
0.000728828
0.0281424
0.000753995
0.0265442
0.000779633
0.025038
0.000805757
0.0236134
0.000828881
0.0222702
0.000853884
0.0210031
0.000876957
0.0198068
0.000898802
0.0186778
0.000920087
0.0176116
0.000939831
0.0166056
0.000958567
0.015655
0.000975806
0.0147578
0.00099176
0.0139097
0.00100606
0.0131082
0.00101886
0.0123506
0.00103071
0.0116334
0.00104059
0.0109551
0.00104942
0.010312
0.00105719
0.00970258
0.00106353
0.00912414
0.00106883
0.00857529
0.00107381
0.00805325
0.00107815
0.00755674
0.00108239
0.00708484
0.0010867
0.00663578
0.00109104
0.00620877
0.00109619
0.00580314
0.00110173
0.00541944
0.00110758
0.00505775
0.00111289
0.00471832
0.00111822
0.00440018
0.00112192
0.00410379
0.00112705
0.00382496
0.00113005
0.00356763
0.00112617
0.00333772
0.00111347
0.00313407
0.00295187
6.88576e-05
0.490202
6.86157e-05
0.462891
3.38735e-05
0.436696
6.82878e-05
0.411951
6.81506e-05
0.388653
6.80314e-05
0.366669
0.000102491
0.345859
6.78215e-05
0.326328
6.7726e-05
0.307835
0.000102204
0.290378
0.000102112
0.273959
0.000102016
0.258473
0.000136484
0.243783
0.000101802
0.230027
0.00013625
0.216962
0.00013611
0.204713
0.000142867
0.193104
0.000156517
0.182166
0.000163229
0.171854
0.000173374
0.162119
0.00018349
0.152937
0.000197034
0.144271
0.000207094
0.136102
0.000220584
0.12839
0.000234051
0.121117
0.000247493
0.114252
0.00026092
0.107781
0.000274336
0.10167
0.000294665
0.095905
0.000308091
0.0904717
0.000324997
0.0853394
0.000345395
0.0805012
0.000362388
0.0759364
0.000382917
0.0716276
0.000400073
0.0675681
0.000424266
0.0637301
0.00044513
0.0601171
0.000466152
0.0567048
0.000490826
0.0534865
0.000512243
0.0504515
0.000537368
0.047586
0.000562748
0.0448866
0.000591887
0.0423357
0.000617867
0.0399333
0.00064071
0.0376689
0.000670857
0.035525
0.000694438
0.033512
0.000721894
0.0316053
0.000749766
0.0298119
0.000774604
0.0281176
0.000799879
0.0265189
0.000825616
0.0250123
0.000848346
0.0235907
0.000871539
0.022247
0.000895561
0.020979
0.000916906
0.0197854
0.00093733
0.0186574
0.000956096
0.0175929
0.000973568
0.0165882
0.000989384
0.0156392
0.00100417
0.0147431
0.00101697
0.0138969
0.00102794
0.0130972
0.00103757
0.012341
0.00104513
0.0116258
0.00105155
0.0109487
0.00105588
0.0103077
0.00105888
0.00969958
0.00106026
0.00912276
0.00106082
0.00857472
0.00106005
0.00805402
0.00105865
0.00755814
0.00105722
0.00708627
0.00105542
0.00663758
0.00105416
0.00621003
0.00105344
0.00580385
0.0010536
0.00541928
0.00105481
0.00505654
0.00105652
0.00471662
0.0010581
0.00439861
0.00106213
0.00409975
0.00106846
0.00381863
0.00107076
0.00356533
0.00106494
0.00334354
0.00104991
0.0031491
0.00297445
3.42816e-05
0.490167
6.85957e-05
0.462857
6.84159e-05
0.436696
6.82565e-05
0.411951
6.81144e-05
0.388653
0.000102561
0.366635
6.7878e-05
0.345894
0.000102346
0.326294
0.000102249
0.307835
0.000102155
0.290378
0.000102061
0.273959
0.000136534
0.258439
0.000101861
0.243818
0.000136318
0.229992
0.000136192
0.216962
0.000153336
0.204696
0.000163547
0.193094
0.000170279
0.182159
0.000183902
0.17184
0.000194041
0.162109
0.00020761
0.152924
0.000214232
0.144264
0.0002312
0.136085
0.000244681
0.128377
0.000258135
0.121104
0.000271565
0.114239
0.000288439
0.107765
0.000305302
0.101653
0.000322167
0.0958881
0.000342497
0.0904514
0.000359389
0.0853226
0.000376326
0.0804843
0.000396774
0.0759159
0.0004173
0.0716071
0.000441378
0.067544
0.00046212
0.0637093
0.000486462
0.0600927
0.000510978
0.0566803
0.000535682
0.0534618
0.000560608
0.0504266
0.000585777
0.0475609
0.000614688
0.0448577
0.000636959
0.0423134
0.000666488
0.0399038
0.000692896
0.0376425
0.000719669
0.0354983
0.00074683
0.0334848
0.000770919
0.0315812
0.000798907
0.0297839
0.000823849
0.0280926
0.000849238
0.0264935
0.000875084
0.0249865
0.000901367
0.0235644
0.000921141
0.0222272
0.000942412
0.0209578
0.000962016
0.0197658
0.000980307
0.0186391
0.000997269
0.0175759
0.00101249
0.0165729
0.00102563
0.0156261
0.00103701
0.0147317
0.00104682
0.0138871
0.00105454
0.0130895
0.00106025
0.0123353
0.00106443
0.0116216
0.00106597
0.0109472
0.00106623
0.0103074
0.00106454
0.00970128
0.00106162
0.00912569
0.00105675
0.00857959
0.00105101
0.00805977
0.00104383
0.00756533
0.00103602
0.00709408
0.00102859
0.00664501
0.00102171
0.00621692
0.00101556
0.00581
0.00101052
0.00542432
0.00100732
0.00505974
0.00100488
0.00471906
0.0010047
0.00439878
0.00101001
0.00409444
0.00101623
0.00381241
0.00101704
0.00356453
0.00100963
0.00335094
0.000997581
0.00316116
0.00299109
6.88371e-05
0.490098
6.85741e-05
0.462857
6.83869e-05
0.436696
6.82216e-05
0.411951
0.000102644
0.388619
6.79476e-05
0.366669
0.0001024
0.345859
0.000102296
0.326294
0.000102197
0.307835
0.000102101
0.290378
0.000136575
0.273925
0.000136477
0.258439
0.000136372
0.243818
0.000136257
0.229992
0.000136128
0.216962
0.000167099
0.204665
0.000177308
0.193084
0.00019095
0.182146
0.000201111
0.17183
0.000214702
0.162095
0.000224805
0.152914
0.000241794
0.144247
0.000255294
0.136072
0.000268767
0.128363
0.000285668
0.121087
0.000302548
0.114222
0.000319407
0.107748
0.000339717
0.101633
0.000356569
0.0958713
0.000373428
0.0904346
0.000393777
0.0853022
0.000417622
0.0804605
0.00044153
0.075892
0.000462051
0.0715866
0.000486141
0.0675199
0.00051035
0.0636851
0.000534712
0.0600684
0.000559252
0.0566558
0.000587456
0.0534336
0.000612424
0.0504016
0.000641115
0.0475322
0.000666621
0.0448322
0.000695904
0.0422842
0.000722051
0.0398776
0.000752022
0.0376125
0.000775425
0.0354749
0.000806167
0.0334541
0.000833849
0.0315535
0.000858476
0.0297592
0.000883532
0.0280676
0.000909018
0.0264681
0.000931465
0.024964
0.000954354
0.0235415
0.000977681
0.0222039
0.000994106
0.0209413
0.00101231
0.0197476
0.00102845
0.018623
0.00104248
0.0175619
0.00105509
0.0165603
0.00106592
0.0156152
0.00107411
0.0147235
0.00108043
0.0138808
0.00108472
0.0130852
0.00108702
0.012333
0.0010868
0.0116218
0.0010851
0.0109489
0.00108076
0.0103117
0.00107425
0.00970779
0.00106585
0.00913408
0.00105608
0.00858936
0.00104452
0.00807133
0.00103215
0.00757769
0.00101896
0.00710727
0.00100533
0.00665864
0.000992013
0.00623024
0.000980236
0.00582177
0.000970684
0.00543387
0.000962469
0.00506795
0.000957248
0.00472428
0.000956935
0.0043991
0.000961675
0.0040897
0.000966317
0.00380777
0.000963608
0.00356724
0.000958658
0.00335589
0.000955407
0.00316441
0.00299351
6.88258e-05
0.49003
6.8551e-05
0.462857
0.000102924
0.436662
0.000102753
0.411952
6.80313e-05
0.388654
0.000102469
0.366635
0.000102349
0.34586
0.000102242
0.326294
0.000136709
0.3078
0.000136612
0.290378
0.000136515
0.273925
0.000136415
0.258439
0.000170878
0.243784
0.000170761
0.229993
0.000205203
0.216928
0.000187771
0.204683
0.000201432
0.19307
0.000211614
0.182136
0.000225228
0.171816
0.000238813
0.162082
0.000252367
0.1529
0.000269347
0.14423
0.000282841
0.136058
0.000299758
0.128346
0.00031665
0.12107
0.000333515
0.114205
0.000357284
0.107724
0.000374122
0.101616
0.000394418
0.095851
0.000414728
0.0904142
0.000438523
0.0852784
0.00046236
0.0804366
0.000482802
0.0758716
0.000510252
0.0715591
0.000534342
0.0674958
0.00055857
0.0636609
0.000586415
0.0600405
0.00061444
0.0566278
0.000639218
0.0534088
0.000671167
0.0503697
0.000696446
0.0475069
0.000725485
0.0448031
0.000754845
0.0422548
0.000781076
0.0398514
0.000811142
0.0375825
0.000841592
0.0354444
0.000865495
0.0334302
0.000893282
0.0315258
0.000921493
0.029731
0.000946652
0.0280424
0.000968774
0.0264459
0.000991308
0.0249415
0.00101077
0.023522
0.00103064
0.022184
0.00105055
0.0209214
0.0010663
0.0197319
0.00108025
0.018609
0.00109211
0.01755
0.00110173
0.0165507
0.00110907
0.0156079
0.00111448
0.0147181
0.00111753
0.0138777
0.00111812
0.0130846
0.00111645
0.0123346
0.0011125
0.0116258
0.0011059
0.0109555
0.00109753
0.0103201
0.00108691
0.00971841
0.00107349
0.0091475
0.00105858
0.00860426
0.00104163
0.00808829
0.00102317
0.00759615
0.00100357
0.00712687
0.000984201
0.00667801
0.00096501
0.00624943
0.000947561
0.00583922
0.000932159
0.00544928
0.000920429
0.00507968
0.000913535
0.00473117
0.000913669
0.00439896
0.00091709
0.00408628
0.000913956
0.0038109
0.000908275
0.00357292
0.000909358
0.00335481
0.000921822
0.00315194
0.00297346
0.00010338
0.489926
0.000103094
0.462858
0.000102891
0.436662
0.000102713
0.411952
0.000102554
0.388654
0.000136987
0.366601
0.000136863
0.34586
0.000136752
0.326294
0.000136649
0.3078
0.000136549
0.290379
0.000136449
0.273925
0.000170917
0.258405
0.000170809
0.243784
0.000205261
0.229958
0.000170557
0.216963
0.000211894
0.204641
0.000222096
0.19306
0.00023573
0.182122
0.000249339
0.171803
0.000262916
0.162068
0.00028338
0.15288
0.000296896
0.144217
0.000313835
0.136042
0.000334201
0.128326
0.000354538
0.12105
0.000374854
0.114185
0.000391687
0.107707
0.000415433
0.101593
0.000435715
0.0958307
0.000462935
0.090387
0.000486721
0.0852546
0.000510554
0.0804128
0.000537913
0.0758442
0.000561902
0.0715351
0.000589467
0.0674683
0.000620622
0.0636297
0.000648492
0.0600126
0.000676552
0.0565997
0.000704831
0.0533805
0.000733358
0.0503411
0.000765633
0.0474746
0.000794744
0.044774
0.000824182
0.0422254
0.000853974
0.0398216
0.000880667