/*--------------------------------*- C++ -*----------------------------------*\
  =========                 |
  \\      /  F ield         | OpenFOAM: The Open Source CFD Toolbox
   \\    /   O peration     | Website:  https://openfoam.org
    \\  /    A nd           | Version:  9
     \\/     M anipulation  |
\*---------------------------------------------------------------------------*/
FoamFile
{
    format      ascii;
    class       volScalarField;
    location    "750";
    object      ReThetat;
}
// * * * * * * * * * * * * * * * * * * * * * * * * * * * * * * * * * * * * * //

dimensions      [0 0 0 0 0 0 0];

internalField   nonuniform List<scalar> 
13617
(
956.785
940.679
935.905
931.327
926.73
922.127
917.568
913.008
908.49
903.982
899.523
895.102
890.736
886.423
882.17
877.982
873.863
869.823
865.867
861.986
858.18
854.463
850.838
847.303
843.857
840.492
837.203
833.981
830.812
827.682
824.573
821.468
818.342
815.172
811.93
808.547
804.501
798.844
791.973
784.074
775.266
765.616
755.211
744.151
732.537
720.446
707.981
695.21
682.211
669.064
655.807
642.542
629.354
616.352
603.723
591.686
580.561
570.773
562.773
557.108
553.18
550.349
548.243
546.634
545.37
544.377
543.63
543.124
542.839
542.77
542.977
543.568
544.634
546.173
548.107
550.351
552.909
556.073
560.453
566.744
574.916
583.399
590.062
593.599
593.451
593.611
956.122
939.484
934.704
930.136
925.551
920.953
916.398
911.841
907.328
902.823
898.376
893.972
889.63
885.345
881.129
876.983
872.906
868.909
865.005
861.175
857.407
853.724
850.135
846.638
843.233
839.909
836.663
833.485
830.362
827.279
824.216
821.155
818.073
814.942
811.735
808.31
804.167
798.412
791.431
783.404
774.434
764.592
753.977
742.699
730.853
718.545
705.887
692.962
679.857
666.656
653.421
640.222
627.165
614.35
601.931
590.103
579.148
569.436
561.39
555.487
551.456
548.64
546.595
545.05
543.839
542.874
542.118
541.515
541.003
540.581
540.314
540.301
540.603
541.181
541.932
542.788
543.794
545.209
547.407
551.116
556.711
563.499
569.976
574.686
576.485
577.982
954.299
937.434
932.675
928.141
923.594
919.039
914.523
910.008
905.535
901.079
896.68
892.321
888.028
883.794
879.638
875.557
871.551
867.623
863.779
860.019
856.324
852.709
849.188
845.761
842.426
839.173
836
832.894
829.842
826.83
823.837
820.842
817.822
814.748
811.591
808.14
803.818
797.929
790.802
782.619
773.448
763.386
752.529
740.984
728.867
716.291
703.368
690.207
676.898
663.528
650.18
636.929
623.879
611.137
598.846
587.2
576.461
566.963
559.093
553.262
549.218
546.441
544.478
543.029
541.924
541.06
540.379
539.775
539.166
538.562
538.043
537.712
537.607
537.677
537.819
537.968
538.139
538.526
539.314
541.233
544.707
549.431
554.625
559.196
561.781
563.956
951.082
934.164
929.462
925.001
920.531
916.059
911.628
907.196
902.803
898.431
894.117
889.846
885.644
881.505
877.448
873.472
869.578
865.767
862.039
858.384
854.8
851.295
847.883
844.565
841.339
838.195
835.131
832.133
829.189
826.282
823.391
820.497
817.572
814.586
811.509
808.123
803.653
797.664
790.431
782.109
772.783
762.53
751.456
739.668
727.294
714.46
701.282
687.882
674.352
660.791
647.294
633.951
620.856
608.117
595.893
584.363
573.783
564.467
556.74
551.065
547.062
544.315
542.412
541.053
540.046
539.287
538.674
538.062
537.373
536.641
535.961
535.417
535.026
534.734
534.48
534.198
533.85
533.555
533.383
534.031
535.886
538.768
542.375
546.059
548.642
551.022
945.868
929.347
924.772
920.445
916.111
911.782
907.486
903.189
898.931
894.7
890.53
886.405
882.352
878.365
874.462
870.644
866.912
863.269
859.714
856.224
852.796
849.449
846.19
843.026
839.952
836.959
834.044
831.193
828.394
825.629
822.877
820.116
817.319
814.454
811.489
808.21
803.633
797.574
790.269
781.841
772.385
761.967
750.694
738.696
726.084
713.01
699.594
685.955
672.213
658.466
644.815
631.359
618.2
605.454
593.265
581.816
571.356
562.182
554.566
549.028
545.102
542.39
540.53
539.238
538.305
537.629
537.047
536.393
535.611
534.772
533.967
533.246
532.625
532.063
531.517
530.903
530.192
529.422
528.619
528.396
529.101
530.535
532.641
535.162
537.294
539.418
938.596
922.952
918.566
914.441
910.311
906.191
902.099
898.002
893.95
889.925
885.963
882.047
878.204
874.428
870.736
867.131
863.615
860.191
856.858
853.581
850.358
847.214
844.154
841.186
838.306
835.504
832.777
830.11
827.491
824.901
822.321
819.726
817.085
814.369
811.541
808.358
803.712
797.605
790.239
781.73
772.152
761.584
750.131
737.926
725.097
711.793
698.145
684.294
670.349
656.425
642.636
629.074
615.855
603.093
590.932
579.553
569.195
560.139
552.62
547.176
543.34
540.675
538.851
537.602
536.729
536.105
535.521
534.804
533.955
533.058
532.17
531.3
530.478
529.675
528.837
527.921
526.902
525.734
524.513
523.738
523.67
524.009
524.881
526.331
527.869
529.4
929.691
915.307
911.168
907.305
903.439
899.585
895.761
891.924
888.131
884.369
880.669
877.014
873.432
869.917
866.485
863.136
859.879
856.716
853.639
850.613
847.633
844.729
841.904
839.166
836.512
833.933
831.423
828.969
826.558
824.17
821.785
819.377
816.916
814.369
811.698
808.604
803.902
797.761
790.344
781.761
772.073
761.364
749.742
737.341
724.305
710.788
696.924
682.869
668.733
654.651
640.726
627.075
613.803
601.029
588.894
577.58
567.307
558.346
550.91
545.506
541.748
539.138
537.348
536.129
535.312
534.722
534.113
533.351
532.512
531.633
530.692
529.697
528.667
527.639
526.554
525.354
523.988
522.402
520.856
519.723
519.102
518.64
518.673
519.332
520.276
521.02
919.876
907.036
903.175
899.608
896.044
892.493
888.974
885.434
881.937
878.469
875.064
871.701
868.411
865.185
862.039
858.975
856.002
853.121
850.32
847.564
844.849
842.205
839.634
837.145
834.735
832.395
830.118
827.892
825.703
823.53
821.353
819.144
816.872
814.503
811.997
808.985
804.24
798.07
790.612
781.958
772.164
761.312
749.528
736.945
723.708
709.987
695.923
681.681
667.374
653.147
639.103
625.369
612.049
599.267
587.16
575.9
565.696
556.805
549.43
544.001
540.299
537.738
535.982
534.785
534.027
533.444
532.796
532.023
531.271
530.503
529.627
528.582
527.357
526.074
524.78
523.274
521.549
519.539
517.653
516.199
515.133
514.21
513.778
513.857
514.213
514.107
909.967
898.776
895.216
891.96
888.709
885.473
882.267
879.039
875.851
872.689
869.587
866.526
863.534
860.604
857.752
854.979
852.295
849.701
847.176
844.691
842.244
839.863
837.549
835.31
833.146
831.046
829.004
827.005
825.038
823.08
821.109
819.097
817.013
814.819
812.475
809.526
804.745
798.54
791.038
782.309
772.411
761.425
749.481
736.72
723.298
709.382
695.135
680.714
666.252
651.888
637.749
623.941
610.586
597.802
585.722
574.512
564.364
555.521
548.178
542.673
538.975
536.449
534.72
533.544
532.82
532.193
531.478
530.805
530.201
529.591
528.887
527.869
526.499
524.957
523.431
521.729
519.663
517.236
514.963
513.148
511.751
510.666
509.957
509.509
509.299
508.447
900.48
891.005
887.751
884.804
881.862
878.932
876.037
873.118
870.232
867.368
864.563
861.797
859.096
856.453
853.887
851.396
848.991
846.672
844.411
842.187
839.997
837.869
835.803
833.805
831.876
830.006
828.188
826.407
824.651
822.897
821.121
819.296
817.388
815.359
813.165
810.256
805.428
799.186
791.628
782.816
772.806
761.681
749.579
736.643
723.039
708.946
694.527
679.942
665.346
650.867
636.641
622.78
609.405
596.629
584.583
573.419
563.323
554.511
547.174
541.552
537.796
535.271
533.551
532.411
531.656
530.9
530.138
529.66
529.332
529.077
528.494
527.438
525.965
524.415
522.73
520.726
518.336
515.556
512.859
510.663
509.042
507.882
506.867
505.913
505.341
504.045
891.731
883.964
881.013
878.361
875.715
873.081
870.482
867.861
865.26
862.68
860.158
857.671
855.246
852.877
850.579
848.354
846.213
844.149
842.134
840.154
838.206
836.314
834.479
832.707
830.999
829.345
827.735
826.157
824.597
823.031
821.437
819.783
818.037
816.157
814.1
811.2
806.315
800.02
792.393
783.486
773.353
762.089
749.826
736.723
722.946
708.681
694.101
679.377
664.658
650.087
635.793
621.898
608.515
595.759
583.757
572.647
562.6
553.811
546.459
540.717
536.803
534.234
532.5
531.401
530.523
529.598
528.866
528.696
528.827
528.972
528.543
527.551
526.071
524.467
522.517
520.205
517.567
514.484
511.377
508.853
507.002
505.584
504.141
502.901
502.394
501.096
883.763
877.729
875.063
872.692
870.326
867.972
865.653
863.315
860.984
858.673
856.415
854.192
852.027
849.913
847.868
845.893
843.999
842.167
840.38
838.627
836.904
835.232
833.612
832.051
830.547
829.092
827.676
826.286
824.907
823.515
822.086
820.589
818.99
817.243
815.308
812.383
807.435
801.067
793.357
784.346
774.082
762.671
750.252
736.983
723.037
708.615
693.891
679.042
664.221
649.573
635.232
621.32
607.945
595.226
583.281
572.234
562.24
553.472
546.093
540.239
536.092
533.401
531.618
530.525
529.461
528.406
527.904
528.107
529.018
529.604
529.51
528.597
527.134
525.355
523.138
520.676
517.567
514.059
510.612
507.778
505.508
503.542
501.711
500.579
500.561
499.603
876.595
872.272
869.89
867.784
865.684
863.596
861.54
859.47
857.399
855.34
853.332
851.355
849.435
847.562
845.755
844.014
842.346
840.731
839.157
837.614
836.1
834.633
833.215
831.85
830.536
829.266
828.03
826.813
825.6
824.369
823.091
821.737
820.27
818.644
816.816
813.839
808.81
802.361
794.556
785.428
775.03
763.465
750.883
737.447
723.347
708.78
693.923
678.965
664.059
649.354
634.988
621.078
607.737
595.072
583.194
572.222
562.289
553.547
546.139
540.179
535.772
532.877
530.998
529.814
528.53
527.567
527.555
528.496
530.096
531.453
532.324
531.784
530.444
528.325
525.592
522.249
518.756
514.78
510.791
507.442
504.478
501.848
499.875
499.18
499.755
499.175
870.19
867.589
865.48
863.628
861.78
859.942
858.135
856.316
854.498
852.676
850.902
849.16
847.469
845.822
844.238
842.718
841.258
839.844
838.469
837.122
835.803
834.527
833.296
832.115
830.978
829.88
828.811
827.756
826.696
825.611
824.472
823.246
821.897
820.377
818.644
815.59
810.47
803.93
796.012
786.756
776.216
764.494
751.752
738.16
723.912
709.204
694.232
679.184
664.213
649.472
635.102
621.214
607.922
595.329
583.536
572.654
562.796
554.095
546.67
540.616
536.003
532.802
530.785
529.345
527.939
527.454
528.428
530.478
533.256
535.938
537.189
537.208
536.088
533.203
529.71
526.284
521.639
516.847
512.029
507.9
504.092
500.896
499.03
498.759
499.669
499.229
864.571
863.679
861.838
860.228
858.618
857.017
855.445
853.862
852.283
850.689
849.136
847.612
846.137
844.704
843.33
842.012
840.746
839.519
838.328
837.163
836.026
834.929
833.873
832.861
831.889
830.951
830.036
829.128
828.209
827.258
826.245
825.135
823.891
822.462
820.81
817.65
812.428
805.781
797.742
788.349
777.656
765.777
752.879
739.133
724.741
709.917
694.845
679.721
664.708
649.957
635.598
621.755
608.533
596.032
584.347
573.575
563.816
555.177
547.761
541.646
536.878
533.424
531.206
529.404
528.112
528.742
531.289
535.327
539.635
544.45
547.794
548.771
547.565
544.061
539.805
534.41
527.324
520.488
514.404
509.307
504.615
501.086
499.359
499.156
499.941
499.304
859.744
860.565
858.979
857.597
856.213
854.836
853.484
852.122
850.766
849.391
848.046
846.726
845.454
844.22
843.042
841.91
840.822
839.769
838.749
837.753
836.784
835.852
834.958
834.103
833.283
832.491
831.718
830.945
830.155
829.325
828.424
827.418
826.265
824.914
823.325
820.036
814.704
807.933
799.764
790.226
779.376
767.34
754.288
740.395
725.876
710.944
695.79
680.613
665.576
650.832
636.516
622.744
609.615
597.23
585.675
575.039
565.407
556.866
549.501
543.377
538.529
534.94
532.604
530.414
529.859
532.48
537.681
544.517
552.482
559.386
566.194
569.405
568.768
563.853
556.926
547.513
537.615
527.103
518.264
511.753
506.215
502.482
500.682
500.076
500.324
499.249
855.771
858.243
856.915
855.748
854.577
853.408
852.262
851.107
849.958
848.791
847.641
846.512
845.427
844.379
843.379
842.418
841.494
840.603
839.74
838.9
838.086
837.306
836.561
835.85
835.169
834.511
833.866
833.217
832.542
831.82
831.018
830.101
829.027
827.74
826.195
822.751
817.298
810.397
802.086
792.396
781.39
769.197
755.994
741.968
727.338
712.311
697.096
681.889
666.856
652.147
637.892
624.214
611.21
598.971
587.577
577.107
567.636
559.241
551.991
545.94
541.123
537.574
535.191
533.178
534.411
540.36
549.469
561.006
573.707
587.18
597.959
602.521
601.669
594.738
584.984
572.831
553.92
537.335
524.555
515.669
508.881
504.799
502.541
501.173
500.702
499.147
852.614
856.731
855.652
854.687
853.715
852.74
851.785
850.821
849.862
848.888
847.925
846.972
846.061
845.182
844.344
843.539
842.767
842.022
841.304
840.606
839.934
839.293
838.683
838.104
837.549
837.013
836.484
835.943
835.372
834.745
834.029
833.188
832.176
830.941
829.421
825.804
820.215
813.178
804.715
794.869
783.707
771.36
758.015
743.871
729.14
714.045
698.794
683.583
668.574
653.928
639.771
626.219
613.368
601.302
590.104
579.842
570.584
562.397
555.343
549.481
544.857
541.616
539.258
538.38
543.208
554.109
569.115
586.856
607.639
626.856
643.189
655.06
653.81
645.19
632.564
607.344
580.195
552.527
533.915
521.285
512.453
507.562
504.49
502.208
501.005
499.079
850.321
856.021
855.186
854.409
853.622
852.826
852.048
851.26
850.476
849.678
848.887
848.099
847.346
846.621
845.93
845.267
844.633
844.021
843.435
842.867
842.323
841.808
841.321
840.86
840.418
839.991
839.565
839.121
838.64
838.095
837.452
836.673
835.71
834.514
832.993
829.187
823.454
816.271
807.658
797.654
786.335
773.845
760.378
746.125
731.317
716.18
700.913
685.724
670.774
656.224
642.195
628.804
616.141
604.293
593.334
583.33
574.347
566.447
559.698
554.172
549.961
547.316
545.297
547.307
557.612
575.488
597.842
624.027
651.546
679.192
692.995
699.914
697.087
687.42
673.399
649.92
620.926
576.586
547.141
528.486
516.537
510.342
506.259
503.075
501.226
499.062
848.858
856.098
855.507
854.904
854.287
853.656
853.039
852.411
851.785
851.146
850.512
849.877
849.268
848.681
848.123
847.589
847.079
846.589
846.12
845.67
845.242
844.839
844.461
844.105
843.765
843.433
843.097
842.739
842.334
841.858
841.275
840.544
839.618
838.448
836.9
832.887
827.011
819.677
810.909
800.752
789.285
776.664
763.084
748.748
733.89
718.733
703.487
688.354
673.498
659.079
645.214
632.021
619.594
608.012
597.347
587.667
579.035
571.524
565.218
560.221
556.739
554.801
554.387
561.365
579.236
605.115
636.278
669.438
702.295
723.184
733.029
736.783
732.977
722.898
708.254
685.69
655.646
605.459
566.028
537.421
520.693
512.744
507.498
503.546
501.292
499.061
848.243
856.948
856.592
856.15
855.687
855.206
854.736
854.252
853.769
853.273
852.779
852.282
851.803
851.341
850.903
850.484
850.085
849.703
849.341
848.995
848.669
848.366
848.085
847.822
847.57
847.322
847.064
846.777
846.437
846.016
845.479
844.785
843.882
842.725
841.122
836.895
830.868
823.382
814.463
804.158
792.558
779.82
766.151
751.759
736.88
721.738
706.546
691.505
676.781
662.535
648.883
635.941
623.8
612.539
602.238
592.961
584.784
577.797
572.113
567.897
565.507
564.492
567.74
582.289
608.632
643.444
681.18
718.723
743.968
758.61
765.434
767.191
762.909
752.919
738.271
716.378
685.743
637.707
587.246
547.077
524.694
514.46
507.83
503.192
500.878
498.902
848.437
858.535
858.414
858.117
857.794
857.448
857.11
856.755
856.399
856.029
855.661
855.287
854.924
854.573
854.241
853.924
853.623
853.337
853.069
852.814
852.579
852.363
852.165
851.983
851.807
851.631
851.438
851.21
850.922
850.544
850.042
849.37
848.478
847.318
845.633
841.188
835.008
827.374
818.312
807.871
796.153
783.324
769.596
755.178
740.309
725.223
710.125
695.222
680.68
666.652
653.263
640.629
628.839
617.975
608.12
599.354
591.768
585.474
580.643
577.572
576.367
577.468
587.574
611.026
646.431
687.411
729.376
759.248
777.284
787.384
791.95
792.478
788.131
778.618
764.432
743.282
712.52
665.616
612.303
556.882
528.256
515.211
506.914
501.737
499.699
498.265
849.413
860.826
860.933
860.768
860.569
860.343
860.122
859.88
859.637
859.378
859.12
858.853
858.593
858.339
858.1
857.873
857.658
857.455
857.268
857.094
856.936
856.795
856.669
856.555
856.444
856.327
856.187
856.006
855.759
855.412
854.931
854.27
853.377
852.2
850.399
845.74
839.413
831.64
822.445
811.886
800.073
787.179
773.423
759.016
744.201
729.215
714.26
699.544
685.23
671.484
658.423
646.163
634.803
624.43
615.136
607.017
600.194
594.826
591.169
589.586
589.932
596.605
615.683
648.404
689.951
734.846
769.401
791.551
804.19
811.022
813.935
813.751
809.644
800.916
787.584
767.391
737.072
691.036
634.399
566.449
531.435
515.331
505.162
499.349
497.693
496.946
851.15
863.768
864.101
864.055
863.966
863.845
863.726
863.585
863.439
863.277
863.113
862.939
862.768
862.599
862.44
862.289
862.148
862.017
861.899
861.792
861.7
861.622
861.557
861.499
861.44
861.371
861.273
861.128
860.908
860.581
860.11
859.448
858.545
857.333
855.384
850.525
844.056
836.155
826.845
816.19
804.312
791.389
777.644
763.289
748.576
733.739
718.981
704.509
690.493
677.093
664.437
652.639
641.805
632.037
623.446
616.159
610.338
606.216
604.196
604.299
608.984
624.541
653.012
692.299
737.086
774.751
801.276
817.328
826.172
830.701
832.446
831.9
828.231
820.522
808.385
789.411
760.106
715.225
655.639
576.698
535.098
515.205
502.845
496.528
495.161
495
853.571
867.313
867.866
867.926
867.933
867.903
867.871
867.815
867.753
867.673
867.59
867.495
867.399
867.302
867.212
867.125
867.046
866.975
866.915
866.865
866.826
866.8
866.784
866.771
866.754
866.721
866.655
866.534
866.331
866.012
865.539
864.867
863.944
862.679
860.555
855.512
848.914
840.901
831.497
820.777
808.87
795.957
782.267
768.018
753.462
738.832
724.331
710.172
696.526
683.549
671.383
660.152
649.973
640.961
633.265
627.056
622.563
620.152
620.084
623.801
637.068
662.157
698.091
739.289
777.069
806.564
826.455
838.157
844.377
847.34
848.305
847.623
844.482
837.89
827.157
809.608
781.841
738.674
677.123
588.523
540.298
516.286
501.392
494.005
492.463
492.599
856.662
871.392
872.165
872.319
872.408
872.456
872.499
872.514
872.523
872.511
872.496
872.465
872.432
872.396
872.362
872.329
872.301
872.278
872.266
872.261
872.266
872.281
872.302
872.324
872.338
872.33
872.284
872.177
871.981
871.661
871.177
870.485
869.53
868.195
865.871
860.666
853.956
845.853
836.387
825.638
813.739
800.884
787.303
773.218
758.875
744.517
730.349
716.576
703.38
690.927
679.361
668.823
659.454
651.401
644.856
640.063
637.373
637.208
640.508
652.37
675.228
709.158
744.347
779.267
809.139
831.606
846.477
855.175
859.63
861.571
862.055
861.359
858.731
853.207
843.934
827.972
802.249
761.362
699.029
602.26
547.846
518.818
500.839
492.077
489.72
490.158
860.332
875.946
876.934
877.172
877.329
877.441
877.546
877.62
877.687
877.733
877.771
877.793
877.81
877.823
877.834
877.843
877.856
877.873
877.898
877.927
877.965
878.011
878.06
878.107
878.141
878.15
878.114
878.01
877.811
877.48
876.977
876.256
875.258
873.836
871.296
865.957
859.156
850.991
841.494
830.756
818.914
806.172
792.755
778.896
764.837
750.826
737.07
723.772
711.125
699.306
688.473
678.793
670.428
663.594
658.545
655.655
655.44
658.698
670.008
691.349
721.317
753.216
783.715
811.573
834.503
851.407
862.655
869.235
872.51
873.795
873.988
873.335
871.169
866.607
858.776
844.521
821.186
783.13
721.137
617.598
557.468
522.686
501.117
490.399
486.919
488.065
864.535
880.907
882.105
882.416
882.63
882.794
882.948
883.07
883.183
883.273
883.355
883.418
883.474
883.524
883.571
883.613
883.658
883.704
883.755
883.81
883.872
883.939
884.007
884.069
884.114
884.129
884.094
883.985
883.774
883.423
882.893
882.137
881.084
879.557
876.797
871.352
864.49
856.292
846.803
836.121
824.394
811.818
798.633
785.069
771.372
757.787
744.533
731.813
719.83
708.778
698.836
690.206
683.112
677.843
674.777
674.498
677.83
688.899
709.91
735.286
763.369
790.963
815.864
837.347
854.584
867.426
876.033
881.075
883.512
884.349
884.364
883.773
882.026
878.315
871.793
859.192
838.283
803.446
742.668
634.375
568.533
526.311
500.713
487.449
484.291
488.094
869.188
886.209
887.608
887.983
888.242
888.447
888.64
888.798
888.947
889.07
889.184
889.279
889.365
889.443
889.515
889.581
889.647
889.713
889.783
889.855
889.932
890.012
890.09
890.158
890.205
890.217
890.175
890.054
889.822
889.444
888.88
888.08
886.96
885.319
882.344
876.821
869.926
861.733
852.299
841.726
830.168
817.825
804.94
791.749
778.497
765.43
752.777
740.75
729.56
719.428
710.574
703.249
697.763
694.533
694.162
697.551
708.395
728.304
750.717
775.078
799.603
822.264
841.853
857.988
870.932
880.718
887.376
891.283
893.092
893.595
893.468
892.919
891.492
888.438
882.96
871.777
853.181
821.658
762.378
651.413
578.765
527.488
497.697
483.777
482.498
491.935
874.231
891.773
893.373
893.806
894.101
894.336
894.558
894.743
894.916
895.065
895.201
895.317
895.424
895.519
895.609
895.69
895.77
895.848
895.929
896.011
896.094
896.178
896.257
896.324
896.365
896.367
896.31
896.169
895.91
895.499
894.895
894.042
892.846
891.082
887.909
882.336
875.44
867.294
857.961
847.553
836.227
824.19
811.682
798.945
786.228
773.778
761.832
750.621
740.38
731.357
723.831
718.133
714.699
714.172
717.518
728.06
745.553
765.887
787.613
809.508
830.012
848.034
862.919
875.042
884.714
892.09
897.219
900.245
901.566
901.791
901.499
900.888
899.62
897.005
892.336
882.409
866.106
837.795
779.726
665.452
584.95
525.179
492.498
479.767
483.818
500.101
879.594
897.538
899.334
899.82
900.142
900.398
900.639
900.842
901.032
901.195
901.345
901.475
901.595
901.7
901.798
901.887
901.974
902.058
902.142
902.225
902.308
902.39
902.463
902.521
902.55
902.534
902.455
902.286
901.995
901.545
900.895
899.983
898.703
896.803
893.463
887.87
881.012
872.958
863.777
853.595
842.571
830.908
818.856
806.658
794.57
782.842
771.729
761.48
752.357
744.662
738.752
735.076
734.303
737.453
747.433
762.535
780.426
800.101
819.891
838.694
855.436
869.298
880.476
889.59
896.78
902.219
906.03
908.278
909.162
909.115
908.611
907.826
906.601
904.342
900.372
891.599
877.56
852.294
794.854
677.836
585.222
518.958
487.06
478.337
489.78
513.024
885.207
903.453
905.427
905.961
906.304
906.573
906.826
907.038
907.237
907.408
907.565
907.702
907.826
907.934
908.033
908.124
908.211
908.294
908.375
908.453
908.529
908.602
908.663
908.705
908.715
908.676
908.569
908.367
908.037
907.544
906.841
905.863
904.491
902.452
898.981
893.402
886.619
878.704
869.734
859.836
849.179
837.969
826.454
814.886
803.527
792.636
782.485
773.352
765.544
759.432
755.491
754.366
757.092
766.102
778.963
794.645
812.054
830.32
847.689
863.397
876.781
887.253
895.584
902.383
907.705
911.63
914.296
915.797
916.228
915.891
915.15
914.145
912.881
910.904
907.483
899.61
887.672
865.309
807.958
688.05
581.032
512.681
486.122
485.086
502.621
523.886
890.99
909.441
911.595
912.176
912.532
912.808
913.065
913.279
913.481
913.653
913.81
913.947
914.07
914.174
914.269
914.355
914.437
914.512
914.585
914.653
914.717
914.774
914.818
914.838
914.823
914.755
914.615
914.375
914.002
913.46
912.701
911.649
910.178
908.011
904.442
898.913
892.246
884.516
875.81
866.261
856.04
845.36
834.467
823.619
813.087
803.149
794.1
786.251
779.972
775.739
774.191
776.302
784.152
794.817
808.181
823.817
840.227
856.62
871.556
884.497
894.906
902.862
909.007
913.954
917.843
920.617
922.364
923.187
923.152
922.5
921.497
920.246
918.79
916.881
913.785
906.678
896.759
877.074
819.374
700.719
577.181
515.111
496.865
496.691
509.132
525.41
896.908
915.467
917.785
918.413
918.778
919.053
919.309
919.521
919.719
919.887
920.039
920.171
920.286
920.382
920.467
920.543
920.613
920.676
920.735
920.788
920.835
920.872
920.893
920.886
920.841
920.74
920.561
920.278
919.858
919.264
918.442
917.316
915.746
913.466
909.828
904.381
897.872
890.379
881.993
872.852
863.136
853.058
842.867
832.828
823.226
814.358
806.546
800.159
795.646
793.626
794.994
801.187
810.039
821.497
834.894
849.87
865.053
879.446
892.163
902.702
910.693
916.782
921.293
924.74
927.431
929.294
930.329
930.577
930.098
929.107
927.795
926.245
924.522
922.529
919.565
913.149
905.2
888.841
830.859
712.077
583.246
531.631
515.079
508.936
511.73
523.088
902.879
921.479
923.95
924.626
924.997
925.268
925.518
925.723
925.912
926.071
926.214
926.336
926.438
926.52
926.591
926.653
926.708
926.754
926.796
926.829
926.853
926.865
926.858
926.821
926.742
926.602
926.382
926.052
925.58
924.929
924.04
922.836
921.172
918.789
915.123
909.795
903.485
896.273
888.26
879.586
870.438
861.032
851.619
842.476
833.898
826.211
819.775
815.025
812.523
813.077
817.625
824.661
834.143
845.732
858.94
872.923
886.782
899.305
910.115
918.61
924.748
929.436
932.784
935.098
936.758
937.826
938.262
938.022
937.15
935.831
934.201
932.308
930.304
928.161
925.159
919.261
913.19
896.836
838.87
722.179
600.542
557.498
538.262
520.491
502.131
508.68
908.869
927.439
930.054
930.781
931.156
931.419
931.658
931.852
932.029
932.175
932.305
932.411
932.496
932.561
932.615
932.658
932.695
932.721
932.74
932.75
932.748
932.731
932.692
932.62
932.502
932.321
932.054
931.673
931.148
930.436
929.48
928.19
926.431
923.958
920.315
915.14
909.067
902.182
894.588
886.435
877.912
869.24
860.674
852.498
845.03
838.623
833.684
830.735
830.482
833.509
838.875
846.352
856.142
867.511
880.297
893.212
905.736
916.661
925.892
932.787
937.524
941.085
943.607
945.16
946.053
946.444
946.334
945.653
944.429
942.811
940.883
938.651
936.317
933.939
930.829
925.269
920.55
912.189
853.107
732.293
612.452
573.463
554.292
535.877
513.428
914.839
933.314
936.064
936.846
937.224
937.476
937.702
937.882
938.044
938.175
938.289
938.374
938.439
938.483
938.516
938.538
938.551
938.554
938.548
938.53
938.5
938.45
938.375
938.264
938.104
937.877
937.561
937.127
936.544
935.768
934.741
933.373
931.518
928.973
925.393
920.402
914.602
908.081
900.951
893.365
885.515
877.626
869.959
862.813
856.518
851.464
848.125
847.109
848.833
852.57
858.36
866.136
875.883
886.968
899.098
910.993
922.294
931.9
939.855
945.622
949.368
951.964
953.821
954.864
955.259
955.147
954.578
953.505
951.966
950.08
947.869
945.382
942.71
939.931
936.545
931.238
927.443
920.745
939.087
941.956
942.797
943.179
943.419
943.63
943.793
943.938
944.05
944.145
944.207
944.246
944.266
944.277
944.275
944.263
944.238
944.205
944.157
944.093
944.007
943.894
943.741
943.536
943.259
942.89
942.4
941.757
940.916
939.814
938.371
936.437
933.835
930.347
925.57
920.07
913.946
907.313
900.329
893.188
886.119
879.39
873.307
868.227
864.574
862.879
863.457
865.611
869.993
875.868
883.942
893.41
904.203
915.547
926.482
936.798
945.328
952.245
957.255
960.415
962.356
963.629
964.26
964.302
963.835
962.921
961.548
959.769
957.625
955.108
952.361
949.389
946.281
942.413
937.17
934.045
926.558
944.743
947.711
948.617
949.005
949.233
949.426
949.57
949.694
949.787
949.859
949.894
949.907
949.902
949.885
949.856
949.817
949.764
949.699
949.618
949.519
949.394
949.238
949.041
948.787
948.459
948.034
947.486
946.78
945.867
944.697
943.172
941.196
938.545
935.169
930.627
925.453
919.75
913.64
907.28
900.869
894.636
888.857
883.846
879.981
877.723
877.319
878.177
881.053
885.508
891.598
899.665
908.804
919.262
929.81
939.87
949.403
957.171
963.281
967.703
970.54
972.188
973.083
973.368
973.133
972.406
971.225
969.61
967.638
965.341
962.615
959.57
956.251
952.775
948.238
942.721
940.091
932.26
950.261
953.315
954.292
954.689
954.905
955.079
955.202
955.305
955.375
955.422
955.427
955.413
955.378
955.334
955.275
955.206
955.123
955.025
954.907
954.77
954.604
954.404
954.159
953.853
953.471
952.988
952.377
951.603
950.626
949.383
947.782
945.766
943.103
939.851
935.559
930.728
925.46
919.883
914.155
908.476
903.074
898.229
894.264
891.571
890.369
890.196
891.664
894.848
899.29
905.592
913.374
922.121
932.149
941.968
951.256
960.115
967.452
973.095
977.11
979.731
981.251
981.982
982.075
981.663
980.754
979.37
977.552
975.408
972.981
970.054
966.696
962.892
959.082
953.942
947.885
944.968
937.835
955.638
958.759
959.813
960.222
960.427
960.582
960.684
960.764
960.811
960.828
960.803
960.756
960.69
960.615
960.527
960.426
960.308
960.176
960.022
959.843
959.633
959.385
959.088
958.729
958.288
957.745
957.071
956.233
955.187
953.864
952.222
950.14
947.507
944.383
940.351
935.868
931.039
925.992
920.887
915.92
911.319
907.359
904.371
902.564
901.571
901.835
903.827
906.954
911.413
917.791
925.13
933.392
942.852
952.118
960.727
968.875
975.919
981.436
985.464
987.993
989.511
990.177
990.173
989.66
988.63
987.088
985.094
982.744
980.118
977.029
973.426
969.043
964.28
958.144
951.414
944.608
943.264
960.871
964.038
965.175
965.603
965.797
965.933
966.012
966.068
966.09
966.077
966.017
965.936
965.837
965.728
965.607
965.475
965.323
965.15
964.957
964.736
964.481
964.183
963.833
963.417
962.917
962.311
961.57
960.662
959.539
958.159
956.466
954.334
951.755
948.754
944.984
940.847
936.448
931.913
927.402
923.104
919.244
916.095
913.868
912.253
911.61
912.308
914.469
917.492
921.881
928.114
934.933
942.621
951.365
960.173
968.278
975.808
982.491
987.924
992.059
994.853
996.428
997.156
997.215
996.665
995.566
993.927
991.817
989.27
986.138
982.498
978.37
973.337
967.421
959.991
952.195
962.123
948.561
965.961
969.15
970.376
970.826
971.013
971.131
971.187
971.219
971.212
971.165
971.069
970.954
970.82
970.675
970.517
970.348
970.161
969.952
969.713
969.446
969.144
968.797
968.391
967.916
967.353
966.681
965.868
964.885
963.702
962.265
960.502
958.36
955.849
952.953
949.438
945.634
941.644
937.589
933.625
929.933
926.73
924.264
922.214
920.885
920.563
921.567
923.63
926.502
930.669
936.494
942.881
949.807
957.672
965.867
973.582
980.72
987.041
992.329
996.532
999.596
1001.55
1002.39
1002.5
1001.9
1000.67
998.827
996.481
993.581
989.887
985.466
980.405
974.266
965.781
955.886
946.432
953.707
970.908
974.095
975.416
975.893
976.074
976.175
976.209
976.215
976.178
976.094
975.962
975.805
975.631
975.453
975.261
975.05
974.822
974.574
974.294
973.981
973.625
973.222
972.758
972.22
971.591
970.85
969.971
968.929
967.672
966.16
964.349
962.224
959.787
956.968
953.692
950.198
946.581
942.961
939.481
936.312
933.655
931.428
929.617
928.537
928.421
929.539
931.406
934.011
937.766
942.931
948.845
955.105
961.95
969.157
976.178
982.842
988.799
993.9
998.082
1001.26
1003.4
1004.47
1004.72
1004.05
1002.58
1000.38
997.558
994.003
988.942
982.689
975.782
967.831
956.766
944.052
932.379
958.704
975.715
978.876
980.296
980.806
980.984