/*--------------------------------*- C++ -*----------------------------------*\
  =========                 |
  \\      /  F ield         | OpenFOAM: The Open Source CFD Toolbox
   \\    /   O peration     | Website:  https://openfoam.org
    \\  /    A nd           | Version:  9
     \\/     M anipulation  |
\*---------------------------------------------------------------------------*/
FoamFile
{
    format      ascii;
    class       volVectorField;
    location    "750";
    object      U;
}
// * * * * * * * * * * * * * * * * * * * * * * * * * * * * * * * * * * * * * //

dimensions      [0 1 -1 0 0 0 0];

internalField   nonuniform List<vector> 
13617
(
(1.15217 3.09765e-05 -1.93893e-21)
(1.15225 8.53856e-05 1.88073e-21)
(1.15227 0.000127705 1.59981e-26)
(1.15229 0.0001588 -1.69588e-26)
(1.1523 0.000193099 -2.36146e-21)
(1.15231 0.000218204 1.84298e-26)
(1.15231 0.000245383 -1.95364e-26)
(1.15232 0.000267463 1.31773e-21)
(1.15232 0.000290823 -1.43988e-21)
(1.15233 0.000311985 -1.53535e-21)
(1.15233 0.000334461 -1.67632e-21)
(1.15234 0.000356735 -1.80472e-21)
(1.15235 0.000380878 1.03386e-21)
(1.15237 0.000406388 -1.17169e-21)
(1.15238 0.000434593 -1.32001e-21)
(1.1524 0.000465482 -1.53272e-21)
(1.15242 0.000499982 -1.79317e-21)
(1.15245 0.000538301 -1.23516e-25)
(1.15248 0.000581095 0)
(1.15251 0.000628606 -1.46928e-23)
(1.15255 0.00068127 -1.71359e-21)
(1.15259 0.000739173 0)
(1.15264 0.000802484 0)
(1.15269 0.000871032 2.68228e-21)
(1.15275 0.000944636 -7.23506e-25)
(1.15282 0.00102275 -8.73105e-25)
(1.15289 0.0011047 1.89511e-24)
(1.15298 0.00118953 2.14673e-21)
(1.15307 0.00127604 0)
(1.15317 0.00136272 0)
(1.15329 0.00144786 -1.2913e-21)
(1.15343 0.00152941 1.30455e-21)
(1.15358 0.0016051 -2.31012e-24)
(1.15375 0.0016724 1.17568e-21)
(1.15395 0.00172856 2.12713e-24)
(1.15417 0.00177064 -6.03713e-22)
(1.15441 0.0017955 -4.98423e-23)
(1.15469 0.0017998 0)
(1.15501 0.00178007 -7.40435e-22)
(1.15536 0.00173263 0)
(1.15575 0.00165357 0)
(1.15619 0.0015388 0)
(1.15666 0.00138388 2.3248e-21)
(1.15719 0.001184 1.01025e-22)
(1.15775 0.0009339 -5.98634e-23)
(1.15836 0.00062768 0)
(1.15901 0.000258741 -1.2361e-22)
(1.1597 -0.000180321 -9.0668e-21)
(1.16042 -0.000698068 0)
(1.16117 -0.00130416 7.01476e-21)
(1.16194 -0.00200953 -8.64073e-21)
(1.16272 -0.00282693 0)
(1.1635 -0.00377051 0)
(1.16427 -0.00485721 -1.57559e-20)
(1.16501 -0.0061057 -9.18649e-21)
(1.16572 -0.00753752 -2.72731e-22)
(1.16637 -0.00917888 -1.28414e-20)
(1.16694 -0.0110591 3.93994e-22)
(1.16743 -0.0132136 -1.98432e-20)
(1.1678 -0.0156837 -3.8622e-20)
(1.16803 -0.0185185 0)
(1.16811 -0.0217775 1.68847e-20)
(1.16801 -0.0255317 -7.75257e-21)
(1.16772 -0.0298645 8.79137e-21)
(1.1672 -0.0348751 1.53148e-20)
(1.16644 -0.0406799 8.41032e-22)
(1.16542 -0.0474164 1.86054e-20)
(1.16411 -0.055242 4.21312e-22)
(1.16248 -0.064332 -7.50314e-21)
(1.16049 -0.0748916 -9.24631e-22)
(1.15808 -0.0871366 -9.67192e-21)
(1.15515 -0.101309 -1.12048e-20)
(1.15153 -0.117665 0)
(1.14702 -0.136457 -1.26036e-20)
(1.14127 -0.157943 1.30978e-20)
(1.13384 -0.182346 -1.07335e-21)
(1.1242 -0.209834 -2.51152e-21)
(1.11167 -0.240452 4.93577e-20)
(1.09535 -0.274012 0)
(1.07414 -0.310083 8.24811e-21)
(1.04716 -0.348001 1.82588e-20)
(1.01415 -0.386937 -1.90765e-20)
(0.975209 -0.426351 -9.61393e-21)
(0.930245 -0.465616 2.79412e-20)
(0.877338 -0.50295 -1.79553e-20)
(0.811431 -0.532546 1.43367e-20)
(1.15217 3.16677e-05 -2.04167e-21)
(1.15225 8.49446e-05 1.81671e-21)
(1.15227 0.000126911 -2.07448e-21)
(1.15229 0.000157585 3.30458e-26)
(1.1523 0.000191459 -1.71503e-28)
(1.15231 0.00021613 -2.31943e-21)
(1.15231 0.000242849 1.22897e-21)
(1.15232 0.000264464 -1.31726e-21)
(1.15232 0.000287316 2.11077e-26)
(1.15233 0.000307948 0)
(1.15233 0.000329866 1.58678e-21)
(1.15234 0.000351554 3.55307e-21)
(1.15235 0.000375082 -5.92752e-26)
(1.15237 0.000399955 1.11662e-21)
(1.15238 0.000427486 3.24254e-23)
(1.1524 0.000457689 1.5322e-21)
(1.15242 0.000491482 1.79304e-21)
(1.15245 0.000529079 0)
(1.15248 0.000571139 0)
(1.15251 0.000617923 -2.89853e-21)
(1.15255 0.000669853 3.41022e-21)
(1.15259 0.000727057 -4.64579e-25)
(1.15264 0.000789671 5.92065e-25)
(1.15269 0.000857583 -1.37196e-23)
(1.15275 0.000930558 -1.52833e-21)
(1.15282 0.00100811 8.72391e-25)
(1.15289 0.00108955 4.58955e-26)
(1.15298 0.00117391 -2.14905e-21)
(1.15307 0.00126 1.14733e-24)
(1.15318 0.00134632 -2.50677e-21)
(1.15329 0.00143111 0)
(1.15343 0.0015123 0)
(1.15358 0.0015876 1.30378e-21)
(1.15375 0.00165446 -1.17606e-21)
(1.15394 0.00171004 1.0048e-21)
(1.15416 0.00175138 0)
(1.15441 0.00177523 -1.08852e-22)
(1.15469 0.00177822 0)
(1.155 0.00175676 1.42756e-21)
(1.15535 0.00170711 0)
(1.15574 0.00162526 0)
(1.15616 0.00150705 -2.93324e-23)
(1.15663 0.00134792 3.1049e-23)
(1.15715 0.00114308 0)
(1.1577 0.000887208 -4.07575e-21)
(1.1583 0.000574351 -5.33799e-21)
(1.15893 0.000198035 -1.20436e-22)
(1.1596 -0.00024912 1.27363e-22)
(1.1603 -0.000775379 1.90072e-22)
(1.16103 -0.00139018 -7.23155e-21)
(1.16176 -0.00210402 8.66261e-21)
(1.16251 -0.00292926 0)
(1.16325 -0.00387941 0)
(1.16397 -0.00497003 -5.07728e-22)
(1.16466 -0.0062192 9.75802e-21)
(1.16531 -0.00764737 -1.76196e-21)
(1.16588 -0.00927832 1.91e-21)
(1.16637 -0.0111398 1.51181e-20)
(1.16675 -0.0132645 1.76083e-20)
(1.16699 -0.0156911 2.30159e-20)
(1.16708 -0.0184657 1.15691e-20)
(1.16698 -0.0216424 -2.61263e-20)
(1.16667 -0.0252874 -7.52713e-21)
(1.16611 -0.029478 8.52437e-21)
(1.16528 -0.0343078 -4.6412e-21)
(1.16413 -0.0398845 1.04136e-21)
(1.16263 -0.0463325 -6.27426e-22)
(1.16074 -0.0537971 -6.87267e-21)
(1.15841 -0.0624393 7.20581e-21)
(1.15557 -0.0724383 -8.49711e-21)
(1.15215 -0.0839877 -6.73363e-22)
(1.14804 -0.0972902 9.56269e-21)
(1.14307 -0.112547 -1.08155e-20)
(1.13704 -0.129963 1.12854e-20)
(1.12966 -0.149707 0)
(1.12055 -0.17191 -1.66503e-21)
(1.1093 -0.196638 -1.50245e-20)
(1.09543 -0.223839 -1.59097e-20)
(1.0783 -0.253265 1.51643e-20)
(1.05712 -0.284454 -2.44356e-20)
(1.03115 -0.316794 0)
(1.00008 -0.349432 0)
(0.964068 -0.381583 -8.67317e-21)
(0.923377 -0.412617 2.07641e-20)
(0.877677 -0.44191 -1.83196e-20)
(0.824336 -0.46706 -8.12598e-21)
(1.15216 3.13958e-05 2.04192e-21)
(1.15225 8.43341e-05 -1.81675e-21)
(1.15227 0.000125954 4.0992e-21)
(1.15229 0.000156186 2.42185e-28)
(1.1523 0.000189621 3.36389e-26)
(1.15231 0.000213844 2.3197e-21)
(1.15231 0.000240092 -2.41884e-21)
(1.15232 0.000261212 1.23437e-21)
(1.15232 0.000283551 -4.09978e-26)
(1.15233 0.000303646 1.40257e-21)
(1.15233 0.000324991 -1.58686e-21)
(1.15234 0.000346092 -5.86495e-23)
(1.15235 0.000368996 6.12044e-26)
(1.15237 0.000393225 -3.27938e-23)
(1.15238 0.000420079 1.28752e-21)
(1.1524 0.000449582 0)
(1.15242 0.000482658 1.72194e-21)
(1.15245 0.000519525 -2.03458e-21)
(1.15248 0.000560843 -1.20488e-21)
(1.15251 0.00060688 1.44103e-21)
(1.15255 0.00065808 -1.8009e-23)
(1.15259 0.000714544 1.96825e-21)
(1.15264 0.000776471 0)
(1.15269 0.000843695 -1.31852e-23)
(1.15275 0.000916042 1.52839e-21)
(1.15282 0.000992998 1.69019e-24)
(1.1529 0.0010739 -9.23497e-25)
(1.15298 0.00115777 0)
(1.15307 0.00124343 -2.3029e-24)
(1.15318 0.00132933 2.50842e-21)
(1.1533 0.00141375 0)
(1.15343 0.00149457 -1.34411e-21)
(1.15358 0.00156948 -1.30175e-21)
(1.15375 0.00163588 1.22795e-21)
(1.15394 0.00169091 -1.00951e-21)
(1.15416 0.00173153 0)
(1.15441 0.00175447 1.08898e-22)
(1.15468 0.00175625 0)
(1.15499 0.00173323 -6.87076e-22)
(1.15534 0.00168159 0)
(1.15572 0.00159726 0)
(1.15614 0.00147598 2.82978e-23)
(1.1566 0.00131321 9.45048e-24)
(1.1571 0.00110399 1.15687e-23)
(1.15765 0.000843084 7.90596e-21)
(1.15823 0.00052458 2.35411e-22)
(1.15885 0.000141972 6.68388e-21)
(1.1595 -0.000311957 -8.35348e-21)
(1.16018 -0.000845261 -1.56386e-22)
(1.16088 -0.00146711 6.41663e-21)
(1.16159 -0.00218762 2.41754e-22)
(1.1623 -0.00301841 0)
(1.163 -0.00397272 0)
(1.16368 -0.00506493 1.45657e-20)
(1.16431 -0.00631196 -5.87045e-22)
(1.16489 -0.00773291 -2.17204e-20)
(1.16539 -0.00935012 1.23827e-20)
(1.16579 -0.011189 -1.43817e-20)
(1.16607 -0.0132797 -1.45048e-20)
(1.16619 -0.0156577 -2.54228e-21)
(1.16614 -0.0183653 2.25157e-21)
(1.16587 -0.0214518 9.70716e-21)
(1.16536 -0.0249786 -2.6857e-22)
(1.16455 -0.0290159 3.96592e-21)
(1.16342 -0.0336477 0)
(1.16192 -0.0389736 4.13706e-20)
(1.15999 -0.0451061 -1.18315e-20)
(1.15759 -0.0521779 0)
(1.15463 -0.0603301 0)
(1.15106 -0.0697245 0)
(1.14678 -0.080528 -1.75149e-20)
(1.14167 -0.0929102 0)
(1.13559 -0.107039 9.99506e-21)
(1.12835 -0.123066 -2.05124e-20)
(1.11968 -0.141116 2.20154e-20)
(1.10929 -0.161256 -3.66105e-20)
(1.09688 -0.183476 -5.40365e-24)
(1.08209 -0.207676 1.30481e-20)
(1.06451 -0.233578 1.21321e-20)
(1.04358 -0.260736 0)
(1.01877 -0.288576 1.28003e-20)
(0.989786 -0.316356 -1.34078e-20)
(0.956749 -0.343307 0)
(0.919903 -0.368732 4.10968e-21)
(0.879422 -0.392145 1.21078e-20)
(0.834217 -0.41247 -1.12642e-20)
(1.15217 3.07773e-05 1.38166e-26)
(1.15225 8.36927e-05 -2.85377e-26)
(1.15227 0.00012497 -4.74098e-23)
(1.15229 0.000154763 0)
(1.1523 0.000187765 2.13978e-21)
(1.15231 0.000211548 -2.1812e-21)
(1.15231 0.000237321 1.18976e-21)
(1.15232 0.000257969 -1.23444e-21)
(1.15232 0.000279791 1.2729e-21)
(1.15233 0.000299352 -1.40269e-21)
(1.15233 0.000320136 2.34547e-26)
(1.15234 0.000340641 -5.54579e-23)
(1.15235 0.000362925 5.93628e-26)
(1.15237 0.000386503 -3.10785e-23)
(1.15238 0.000412686 7.23742e-26)
(1.1524 0.000441487 1.4297e-21)
(1.15242 0.000473833 -3.44049e-23)
(1.15245 0.000509954 2.03472e-21)
(1.15248 0.000550522 1.73117e-23)
(1.15251 0.000595797 6.9333e-25)
(1.15255 0.000646233 -1.69253e-23)
(1.15259 0.000701958 -1.96885e-21)
(1.15264 0.000763139 0)
(1.15269 0.000829666 -2.65647e-21)
(1.15276 0.00090134 -7.70483e-25)
(1.15282 0.000977673 8.16592e-25)
(1.1529 0.00105798 -1.94222e-21)
(1.15298 0.00114133 2.15438e-21)
(1.15308 0.00122648 2.30996e-24)
(1.15318 0.00131193 -2.44779e-24)
(1.1533 0.00139591 1.32907e-21)
(1.15343 0.00147631 1.34168e-21)
(1.15358 0.00155077 -2.43343e-24)
(1.15375 0.00161668 -1.22357e-21)
(1.15395 0.00167114 0)
(1.15416 0.00171103 0)
(1.1544 0.00173305 1.68926e-22)
(1.15468 0.00173365 1.44387e-24)
(1.15498 0.00170913 -4.97981e-24)
(1.15532 0.00165559 9.63386e-24)
(1.1557 0.00156892 -6.36215e-24)
(1.15612 0.00144479 2.72953e-23)
(1.15657 0.00127858 -2.88973e-23)
(1.15706 0.00106541 0)
(1.1576 0.000799863 -4.02456e-21)
(1.15817 0.000476154 5.26022e-21)
(1.15877 8.80157e-05 -6.69119e-21)
(1.15941 -0.000371852 1.69122e-20)
(1.16006 -0.000911246 -5.16257e-21)
(1.16074 -0.00153901 -6.84487e-21)
(1.16142 -0.00226479 7.95438e-21)
(1.1621 -0.00309977 3.31483e-22)
(1.16276 -0.00405624 -3.50266e-22)
(1.16339 -0.00514842 -1.45973e-20)
(1.16397 -0.00639131 5.6982e-22)
(1.16449 -0.00780311 9.73293e-21)
(1.16492 -0.00940418 0)
(1.16524 -0.0112178 1.42487e-20)
(1.16542 -0.0132715 1.44391e-20)
(1.16544 -0.0155977 2.31758e-20)
(1.16525 -0.0182343 -1.36052e-20)
(1.16483 -0.021227 3.20614e-21)
(1.16413 -0.0246299 -3.37844e-21)
(1.16311 -0.0285064 0)
(1.16171 -0.0329333 -4.5757e-21)
(1.15989 -0.0379994 -2.06097e-20)
(1.15757 -0.0438056 -5.36144e-21)
(1.15471 -0.0504698 5.60447e-21)
(1.1512 -0.0581183 6.53466e-21)
(1.14698 -0.0668937 2.15185e-20)
(1.14194 -0.0769403 2.36902e-22)
(1.13596 -0.0883983 -8.4205e-21)
(1.1289 -0.101407 0)
(1.12057 -0.116083 1.02695e-20)
(1.11077 -0.132511 -6.71716e-22)
(1.09923 -0.150719 -1.07159e-20)
(1.08574 -0.170651 -1.02715e-20)
(1.07007 -0.192153 0)
(1.05192 -0.214972 -1.25468e-20)
(1.03092 -0.238707 1.04911e-20)
(1.00671 -0.262787 -6.45779e-21)
(0.979109 -0.286602 3.96851e-21)
(0.948198 -0.309553 -6.94713e-21)
(0.914134 -0.33092 3.04181e-21)
(0.877309 -0.350103 -2.03428e-21)
(0.837463 -0.366511 2.15436e-21)
(1.15217 3.02243e-05 0)
(1.15225 8.30559e-05 1.6908e-21)
(1.15227 0.000123989 -1.97758e-21)
(1.15229 0.000153358 1.9446e-21)
(1.1523 0.000185933 -4.22217e-21)
(1.15231 0.00020928 4.29815e-21)
(1.15231 0.0002346 -3.46813e-26)
(1.15232 0.000254767 1.15441e-21)
(1.15232 0.00027609 -1.27278e-21)
(1.15233 0.000295127 0)
(1.15233 0.000315348 1.43004e-21)
(1.15234 0.00033527 -1.63527e-21)
(1.15235 0.000356939 -3.88892e-27)
(1.15237 0.00037987 -1.05291e-21)
(1.15238 0.00040537 -1.18953e-21)
(1.1524 0.000433465 -1.42979e-21)
(1.15242 0.000465088 -1.68773e-21)
(1.15245 0.000500462 -1.96558e-21)
(1.15248 0.00054026 1.73348e-23)
(1.15251 0.000584757 -1.3887e-21)
(1.15255 0.000634418 -1.66139e-21)
(1.15259 0.000689359 -1.937e-21)
(1.15264 0.000749792 0)
(1.1527 0.000815571 -2.63043e-21)
(1.15276 0.00088654 -7.68386e-25)
(1.15282 0.000962199 8.14373e-25)
(1.1529 0.00104187 3.88098e-21)
(1.15298 0.00112462 7.85083e-25)
(1.15308 0.00120923 -2.31651e-24)
(1.15318 0.00129417 4.91621e-24)
(1.1533 0.00137766 -1.32934e-21)
(1.15344 0.00145757 0)
(1.15359 0.00153155 1.35303e-21)
(1.15375 0.00159691 0)
(1.15395 0.00165073 0)
(1.15416 0.00168988 -8.23849e-22)
(1.1544 0.00171096 -1.70122e-22)
(1.15467 0.00171039 0)
(1.15497 0.0016844 0)
(1.15531 0.00162906 -5.70782e-24)
(1.15568 0.00154014 6.04506e-24)
(1.15609 0.00141333 0)
(1.15654 0.00124395 -3.68169e-23)
(1.15703 0.00102707 3.89735e-23)
(1.15755 0.000757368 -3.70602e-21)
(1.15811 0.000429016 0)
(1.15869 3.58164e-05 -1.10311e-22)
(1.15931 -0.000429295 -8.1475e-21)
(1.15995 -0.00097381 5.02115e-21)
(1.1606 -0.00160642 -3.13654e-23)
(1.16125 -0.00233633 -8.00005e-21)
(1.1619 -0.00317421 -4.19942e-23)
(1.16252 -0.00413143 -1.06776e-20)
(1.16311 -0.00522104 1.32933e-20)
(1.16364 -0.00645787 5.52249e-22)
(1.1641 -0.00785811 9.09881e-21)
(1.16446 -0.00944032 -1.52943e-21)
(1.16471 -0.0112259 1.61451e-21)
(1.1648 -0.0132397 -2.06393e-21)
(1.16471 -0.0155108 1.48682e-21)
(1.1644 -0.018073 0)
(1.16383 -0.020967 8.56912e-21)
(1.16296 -0.0242413 1.6468e-20)
(1.16174 -0.0279525 3.92668e-21)
(1.1601 -0.0321676 2.50303e-22)
(1.15799 -0.036967 -4.62233e-21)
(1.15533 -0.0424376 1.08057e-20)
(1.15205 -0.0486872 -1.19223e-20)
(1.14806 -0.0558233 0)
(1.14326 -0.0639704 -1.42621e-20)
(1.13755 -0.073255 0)
(1.1308 -0.0837951 -2.33795e-20)
(1.12288 -0.0957038 -6.16552e-23)
(1.11363 -0.109066 1.74489e-20)
(1.10285 -0.123949 9.22294e-21)
(1.09034 -0.140359 -9.67964e-21)
(1.07593 -0.158203 1.47854e-21)
(1.05952 -0.177295 0)
(1.04093 -0.197407 0)
(1.01989 -0.218187 0)
(0.996185 -0.239108 -4.68182e-21)
(0.969692 -0.259738 -6.75275e-21)
(0.940476 -0.279594 -3.41178e-21)
(0.908818 -0.297879 3.58975e-21)
(0.875181 -0.313975 -1.08531e-21)
(0.839545 -0.327516 1.14706e-21)
(1.15217 2.97745e-05 0)
(1.15225 8.24059e-05 -1.69087e-21)
(1.15227 0.00012301 0)
(1.15229 0.000151951 -1.94468e-21)
(1.1523 0.000184119 2.08199e-21)
(1.15231 0.00020704 -4.16954e-21)
(1.15231 0.000231911 0)
(1.15232 0.000251617 -1.15458e-21)
(1.15232 0.000272442 0)
(1.15233 0.000290961 0)
(1.15233 0.000310633 -1.43005e-21)
(1.15234 0.000329977 1.52751e-21)
(1.15235 0.000351031 -8.64354e-22)
(1.15236 0.000373319 5.92435e-26)
(1.15238 0.000398149 1.18966e-21)
(1.1524 0.000425543 1.78816e-25)
(1.15242 0.000456427 -1.89536e-25)
(1.15245 0.000491042 1.96569e-21)
(1.15248 0.000530067 2.32265e-21)
(1.15251 0.000573779 1.38806e-21)
(1.15255 0.000622639 -1.62785e-21)
(1.15259 0.000676792 1.93666e-21)
(1.15264 0.000736428 -5.78821e-25)
(1.1527 0.000801444 2.63054e-21)
(1.15276 0.000871658 7.09129e-25)
(1.15283 0.000946605 0)
(1.1529 0.0010256 -1.93967e-21)
(1.15299 0.00110771 -2.15671e-21)
(1.15308 0.00119171 2.26842e-24)
(1.15319 0.00127608 2.47296e-24)
(1.1533 0.00135902 1.34164e-21)
(1.15344 0.0014384 -2.72473e-24)
(1.15359 0.00151181 -1.35326e-21)
(1.15376 0.00157658 -1.29732e-21)
(1.15395 0.00162973 0)
(1.15416 0.00166809 8.25123e-22)
(1.1544 0.00168822 -2.2935e-22)
(1.15467 0.00168648 -2.56278e-25)
(1.15497 0.00165907 0)
(1.1553 0.00160196 0)
(1.15566 0.00151094 1.71313e-23)
(1.15607 0.00138161 -1.81393e-23)
(1.15651 0.00120926 1.92079e-21)
(1.15698 0.000988969 0)
(1.1575 0.000715468 3.64397e-21)
(1.15804 0.000382987 -4.71995e-21)
(1.15861 -1.46042e-05 -5.99127e-21)
(1.15921 -0.000484137 7.74247e-21)
(1.15983 -0.001033 -4.86902e-21)
(1.16045 -0.00166933 -2.08907e-22)
(1.16108 -0.00240188 2.20924e-22)
(1.16169 -0.003241 0)
(1.16228 -0.00419726 3.88598e-22)
(1.16282 -0.00528289 -2.69727e-20)
(1.16331 -0.00651117 7.89922e-21)
(1.16371 -0.0078974 -3.45269e-22)
(1.16401 -0.00945808 -1.09977e-20)
(1.16417 -0.0112127 0)
(1.16418 -0.0131832 0)
(1.16399 -0.0153954 -1.78856e-20)
(1.16357 -0.0178794 0)
(1.16287 -0.020671 -1.16984e-20)
(1.16184 -0.0238118 -2.25952e-20)
(1.16043 -0.0273522 2.27147e-22)
(1.15858 -0.0313505 -3.97017e-21)
(1.15621 -0.0358766 4.65577e-21)
(1.15325 -0.0410073 -4.90672e-21)
(1.14961 -0.0468345 -1.07147e-20)
(1.14519 -0.0534543 -6.09871e-21)
(1.1399 -0.0609738 6.4239e-21)
(1.13362 -0.0695021 0)
(1.12622 -0.0791381 2.24075e-20)
(1.11759 -0.0899756 7.86131e-21)
(1.10757 -0.102085 -8.65384e-21)
(1.09599 -0.115509 8.32397e-21)
(1.08269 -0.130244 -8.75416e-21)
(1.06757 -0.14619 1.74552e-20)
(1.05062 -0.163148 -8.62843e-21)
(1.03174 -0.180903 0)
(1.01082 -0.199111 -6.2077e-21)
(0.987606 -0.217382 6.5224e-21)
(0.961993 -0.235486 -2.90746e-22)
(0.934254 -0.252839 2.65046e-21)
(0.904883 -0.268604 2.16993e-22)
(0.874166 -0.282354 -3.31812e-21)
(0.842032 -0.293875 0)
(1.15217 2.93498e-05 1.28896e-26)
(1.15225 8.17345e-05 1.61056e-21)
(1.15228 0.000122022 1.8418e-21)
(1.15229 0.00015055 1.84104e-21)
(1.1523 0.000182314 1.48657e-26)
(1.15231 0.000204823 2.05252e-21)
(1.15231 0.000229254 -1.04449e-21)
(1.15232 0.000248507 -1.07531e-21)
(1.15232 0.00026885 1.76902e-26)
(1.15233 0.000286858 -1.95286e-26)
(1.15233 0.00030599 -1.32845e-21)
(1.15234 0.000324761 -3.0004e-21)
(1.15235 0.000345214 8.64338e-22)
(1.15236 0.000366865 -9.62025e-22)
(1.15238 0.000391019 6.65355e-26)
(1.1524 0.000417709 1.74771e-25)
(1.15242 0.000447863 -1.85262e-25)
(1.15245 0.00048172 -2.48873e-25)
(1.15248 0.000519961 -1.75045e-23)
(1.15251 0.00056287 3.86174e-26)
(1.15255 0.000610918 1.62792e-21)
(1.15259 0.000664253 0)
(1.15264 0.000723081 0)
(1.1527 0.000787295 -2.60261e-21)
(1.15276 0.000856731 -7.63731e-25)
(1.15283 0.000930914 8.0944e-25)
(1.1529 0.00100919 0)
(1.15299 0.0010906 2.15302e-21)
(1.15308 0.00117395 4.59954e-24)
(1.15319 0.00125768 -2.46798e-24)
(1.15331 0.00134 -1.3418e-21)
(1.15344 0.00141878 1.39054e-21)
(1.15359 0.00149157 -2.54941e-24)
(1.15376 0.00155568 1.30013e-21)
(1.15395 0.00160812 0)
(1.15416 0.00164563 9.15328e-22)
(1.1544 0.00166479 2.31007e-22)
(1.15466 0.00166188 -2.31859e-23)
(1.15496 0.00163306 4.44214e-24)
(1.15528 0.00157426 -5.75006e-24)
(1.15565 0.00148122 -1.62945e-23)
(1.15604 0.00134952 4.13995e-23)
(1.15647 0.00117446 -3.7859e-21)
(1.15694 0.000951074 2.60021e-21)
(1.15744 0.000674112 -3.55239e-21)
(1.15797 0.000338035 4.77099e-21)
(1.15853 -6.32866e-05 5.97816e-21)
(1.15911 -0.000536519 -7.6367e-21)
(1.15971 -0.00108873 4.87127e-21)
(1.16031 -0.00172769 -6.04746e-21)
(1.1609 -0.00246185 -7.23548e-21)
(1.16148 -0.00330053 5.62301e-22)
(1.16203 -0.00425404 8.09491e-23)
(1.16253 -0.00533351 2.60365e-20)
(1.16297 -0.00655111 -6.87709e-21)
(1.16332 -0.00792055 -1.0452e-20)
(1.16355 -0.0094569 9.58864e-21)
(1.16364 -0.0111774 -1.25154e-20)
(1.16357 -0.0131014 1.74938e-21)
(1.16328 -0.0152512 0)
(1.16275 -0.0176529 0)
(1.16193 -0.0203375 1.07535e-20)
(1.16076 -0.0233404 9.51235e-21)
(1.15919 -0.026706 -1.38588e-20)
(1.15714 -0.0304821 3.79832e-21)
(1.15454 -0.0347315 0)
(1.15132 -0.0395165 0)
(1.14737 -0.0449198 5.46274e-21)
(1.14259 -0.0510217 -5.40898e-21)
(1.13688 -0.0579147 0)
(1.13011 -0.0656947 0)
(1.12217 -0.0744441 -2.14003e-20)
(1.11293 -0.0842464 7.29539e-21)
(1.10227 -0.0951568 0)
(1.09003 -0.107202 0)
(1.07609 -0.120377 0)
(1.06039 -0.134592 0)
(1.043 -0.149646 1.29801e-20)
(1.02392 -0.165317 -6.87704e-21)
(1.00311 -0.181289 4.63085e-21)
(0.98023 -0.197384 1.51306e-21)
(0.955335 -0.213379 -2.13331e-21)
(0.929044 -0.228498 8.52891e-22)
(0.901751 -0.242142 -2.664e-22)
(0.873438 -0.254158 -9.54856e-22)
(0.844161 -0.264288 5.69527e-21)
(1.15217 2.89171e-05 1.77599e-21)
(1.15225 8.10574e-05 -1.61057e-21)
(1.15228 0.000121027 -4.58258e-23)
(1.15229 0.000149158 -1.84116e-21)
(1.1523 0.000180525 -1.40887e-26)
(1.15231 0.000202634 3.05378e-26)
(1.15231 0.000226637 1.04457e-21)
(1.15232 0.000245447 4.00312e-23)
(1.15232 0.000265314 -1.09919e-21)
(1.15233 0.000282828 3.69267e-26)
(1.15233 0.000301426 1.32851e-21)
(1.15234 0.00031964 2.89073e-21)
(1.15235 0.00033949 8.0592e-22)
(1.15236 0.00036051 9.61863e-22)
(1.15238 0.000384002 7.17669e-26)
(1.1524 0.000409989 -2.46785e-25)
(1.15242 0.000439407 1.8094e-25)
(1.15245 0.000472501 -2.44598e-25)
(1.15248 0.000509954 -2.25079e-21)
(1.15251 0.000552048 6.59261e-25)
(1.15255 0.000599275 -3.69997e-25)
(1.15259 0.000651774 0)
(1.15264 0.000709767 0)
(1.1527 0.000773148 2.60272e-21)
(1.15276 0.000841767 0)
(1.15283 0.000915155 1.7284e-24)
(1.1529 0.000992652 1.92997e-21)
(1.15299 0.00107331 -4.30779e-21)
(1.15308 0.00115593 -2.2722e-24)
(1.15319 0.00123897 0)
(1.15331 0.00132062 2.60668e-24)
(1.15344 0.00139872 -1.3933e-21)
(1.15359 0.00147082 1.40618e-21)
(1.15376 0.00153421 -2.7422e-24)
(1.15395 0.00158585 0)
(1.15416 0.00162249 -9.16683e-22)
(1.15439 0.00164063 -1.03979e-24)
(1.15465 0.00163654 2.5219e-23)
(1.15495 0.00160632 0)
(1.15527 0.00154587 0)
(1.15563 0.00145092 0)
(1.15602 0.00131699 0)
(1.15644 0.00113937 8.42392e-23)
(1.1569 0.000913183 -4.99973e-21)
(1.15739 0.000633217 6.68555e-21)
(1.1579 0.000293919 -1.46026e-23)
(1.15845 -0.000110572 8.19285e-23)
(1.15901 -0.000586639 -7.18904e-21)
(1.15958 -0.00114123 0)
(1.16016 -0.00178164 5.6527e-21)
(1.16072 -0.00251594 2.3994e-22)
(1.16127 -0.00335293 2.52059e-22)
(1.16178 -0.00430171 2.0878e-20)
(1.16224 -0.00537289 -1.27825e-20)
(1.16263 -0.0065775 -8.30833e-21)
(1.16292 -0.00792756 1.0472e-21)
(1.16309 -0.00943658 1.0166e-20)
(1.16312 -0.0111195 2.58231e-20)
(1.16296 -0.0129933 -3.51765e-21)
(1.16259 -0.0150769 4.04991e-21)
(1.16196 -0.0173924 6.81834e-21)
(1.16102 -0.019966 -4.95091e-22)
(1.15972 -0.022827 0)
(1.158 -0.0260121 1.71117e-20)
(1.15578 -0.0295627 -1.81034e-20)
(1.15299 -0.0335291 -1.60152e-20)
(1.14954 -0.037966 0)
(1.14532 -0.0429419 0)
(1.14023 -0.0485255 1.10633e-20)
(1.13416 -0.0547958 0)
(1.12698 -0.0618356 1.17541e-20)
(1.11858 -0.0697174 1.23265e-20)
(1.10883 -0.0785135 -1.27569e-20)
(1.09761 -0.0882719 0)
(1.0848 -0.0990155 6.49958e-21)
(1.07031 -0.110737 -6.34666e-21)
(1.05412 -0.123362 6.03103e-21)
(1.03637 -0.136692 -1.29213e-20)
(1.01712 -0.150509 4.5521e-21)
(0.996308 -0.164625 -6.30042e-21)
(0.97362 -0.17892 3.56201e-21)
(0.949571 -0.192945 -2.45743e-22)
(0.924626 -0.206047 -1.6254e-21)
(0.898854 -0.218087 3.3296e-21)
(0.872383 -0.228905 -5.34636e-21)
(0.845575 -0.237937 -1.7547e-21)
(1.15217 2.85121e-05 -4.05106e-23)
(1.15225 8.0351e-05 1.52932e-21)
(1.15228 0.000120034 -4.5961e-23)
(1.15229 0.000147771 2.69518e-26)
(1.1523 0.000178763 -2.85697e-26)
(1.15231 0.000200478 2.86475e-26)
(1.15231 0.000224066 -3.03651e-26)
(1.15232 0.000242443 1.03543e-21)
(1.15232 0.000261848 2.15454e-21)
(1.15233 0.000278875 -1.11929e-21)
(1.15233 0.000296952 3.75874e-26)
(1.15234 0.00031461 -2.78034e-21)
(1.15235 0.000333879 -8.0596e-22)
(1.15236 0.000354275 8.99923e-22)
(1.15238 0.000377101 -1.06015e-21)
(1.1524 0.000402393 -1.26261e-21)
(1.15242 0.000431079 1.51514e-21)
(1.15245 0.000463407 -1.8236e-21)
(1.15248 0.000500059 1.84888e-23)
(1.15251 0.000541344 3.0556e-25)
(1.15255 0.00058772 -4.10108e-25)
(1.1526 0.00063937 1.86844e-21)
(1.15264 0.0006965 0)
(1.1527 0.00075902 -2.5719e-21)
(1.15276 0.000826781 0)
(1.15283 0.00089933 1.7243e-24)
(1.15291 0.000976 -1.93559e-21)
(1.15299 0.00105586 2.15683e-21)
(1.15309 0.0011377 2.33899e-24)
(1.15319 0.00121998 -2.47875e-24)
(1.15331 0.00130087 0)
(1.15344 0.00137822 1.40971e-21)
(1.15359 0.00144956 1.9259e-23)
(1.15376 0.00151215 2.44792e-24)
(1.15395 0.00156295 1.59926e-24)
(1.15415 0.00159865 -7.48494e-24)
(1.15439 0.00161573 3.22337e-24)
(1.15465 0.00161043 0)
(1.15494 0.00157882 0)
(1.15525 0.00151676 -7.86136e-22)
(1.15561 0.00141995 -1.45107e-21)
(1.15599 0.00128395 -2.27607e-21)
(1.1564 0.00110402 3.42329e-21)
(1.15685 0.000875308 2.44551e-21)
(1.15733 0.000592712 -3.24555e-21)
(1.15783 0.000250763 1.40841e-23)
(1.15836 -0.000156235 1.67731e-23)
(1.1589 -0.000634461 7.08816e-21)
(1.15945 -0.00119045 0)
(1.16 -0.00183121 5.40009e-21)
(1.16054 -0.00256416 6.93029e-21)
(1.16106 -0.00339765 8.66868e-21)
(1.16153 -0.00434004 -1.08229e-20)
(1.16195 -0.0054007 1.1775e-20)
(1.16229 -0.00658968 7.31901e-21)
(1.16253 -0.00791751 0)
(1.16264 -0.00939615 -4.43514e-22)
(1.1626 -0.0110383 -1.18641e-20)
(1.16237 -0.0128581 0)
(1.16191 -0.0148713 -1.50963e-20)
(1.16119 -0.0170963 -1.1348e-20)
(1.16015 -0.0195544 -7.86386e-21)
(1.15873 -0.0222689 1.10295e-20)
(1.15688 -0.0252706 3.25836e-21)
(1.15451 -0.0285907 7.45673e-21)
(1.15155 -0.0322723 1.98602e-20)
(1.1479 -0.0363584 -4.33945e-21)
(1.14346 -0.0409054 -1.81247e-20)
(1.13812 -0.0459725 1.46549e-20)
(1.13175 -0.0516238 0)
(1.12423 -0.0579337 -1.18139e-20)
(1.11544 -0.064966 -1.24015e-20)
(1.10527 -0.0727817 1.28497e-20)
(1.09359 -0.0814358 1.17864e-20)
(1.0803 -0.0909524 -1.24608e-20)
(1.06534 -0.101316 1.26532e-20)
(1.04872 -0.112489 0)
(1.03068 -0.124261 0)
(1.01125 -0.136466 -8.2443e-21)
(0.99032 -0.149077 -1.39056e-21)
(0.967956 -0.16174 -2.83962e-21)
(0.944787 -0.173907 -1.79027e-22)
(0.920713 -0.185498 3.47448e-21)
(0.895866 -0.196538 3.12088e-21)
(0.870976 -0.206344 4.1842e-21)
(0.846656 -0.214204 7.51218e-22)
(1.15217 2.81274e-05 -1.73609e-21)
(1.15225 7.96418e-05 -4.11812e-23)
(1.15228 0.000119043 -1.75026e-21)
(1.15229 0.000146401 0)
(1.1523 0.000177023 -2.69647e-26)
(1.15231 0.000198361 1.79024e-21)
(1.15231 0.000221543 -2.85618e-26)
(1.15232 0.000239503 9.55275e-22)
(1.15232 0.000258457 -1.05536e-21)
(1.15233 0.000275008 1.11935e-21)
(1.15233 0.000292575 1.51131e-27)
(1.15234 0.000309693 2.67033e-21)
(1.15235 0.000328378 4.48771e-26)
(1.15236 0.000348158 -8.99834e-22)
(1.15238 0.000370332 2.08792e-21)
(1.1524 0.000394929 1.26225e-21)
(1.15242 0.000422882 -3.55197e-23)
(1.15245 0.000454446 1.8232e-21)
(1.15248 0.000490297 1.09779e-21)
(1.15251 0.000530747 1.29752e-21)
(1.15255 0.000576282 -1.55527e-21)
(1.1526 0.000627052 -1.8681e-21)
(1.15265 0.000683305 0)
(1.1527 0.000744931 5.12738e-21)
(1.15276 0.000811809 -1.48095e-21)
(1.15283 0.000883469 0)
(1.15291 0.000959271 0)
(1.15299 0.00103827 0)
(1.15309 0.00111926 -2.34311e-24)
(1.1532 0.00120071 4.99678e-24)
(1.15331 0.00128078 -2.41529e-26)
(1.15345 0.00135729 5.06114e-24)
(1.15359 0.0014278 -1.41716e-21)
(1.15376 0.00148953 -5.00556e-24)
(1.15395 0.0015394 5.30359e-24)
(1.15415 0.00157409 3.25567e-24)
(1.15438 0.00159008 -1.83466e-24)
(1.15464 0.00158354 1.04162e-22)
(1.15492 0.00155054 2.4014e-22)
(1.15524 0.00148691 7.98982e-22)
(1.15558 0.00138835 2.76427e-21)
(1.15596 0.0012504 2.29033e-21)
(1.15637 0.00106836 -1.66803e-21)
(1.1568 0.000837456 0)
(1.15727 0.000552603 0)
(1.15776 0.000208555 3.98299e-21)
(1.15827 -0.000200259 -5.25739e-21)
(1.15879 -0.000679804 -6.49673e-21)
(1.15932 -0.0012362 4.15027e-21)
(1.15984 -0.00187599 -2.35134e-22)
(1.16036 -0.00260629 -4.38595e-22)
(1.16084 -0.0034344 -1.54005e-20)
(1.16127 -0.00436823 -9.375e-21)
(1.16165 -0.0054161 -1.17725e-20)
(1.16194 -0.00658679 0)
(1.16213 -0.00788966 0)
(1.16218 -0.00933459 -1.89945e-20)
(1.16208 -0.0109323 0)
(1.16178 -0.0126942 1.24904e-20)
(1.16125 -0.0146335 7.4664e-22)
(1.16044 -0.0167641 2.18145e-21)
(1.15931 -0.0191025 6.97811e-21)
(1.15779 -0.0216672 -5.87453e-22)
(1.15582 -0.0244807 3.08252e-21)
(1.15333 -0.0275682 1.311e-20)
(1.15023 -0.0309629 -1.78635e-20)
(1.14643 -0.0346972 -1.55801e-20)
(1.14181 -0.038817 2.24384e-20)
(1.13626 -0.0433714 -1.43628e-20)
(1.12966 -0.0484118 9.61607e-21)
(1.12188 -0.0540048 0)
(1.11279 -0.0602065 1.04668e-20)
(1.10228 -0.0670762 5.44227e-21)
(1.09022 -0.0746729 -1.76244e-20)
(1.07653 -0.0830292 0)
(1.06117 -0.0921283 0)
(1.04419 -0.101975 4.35676e-21)
(1.02588 -0.11236 -4.61035e-21)
(1.00622 -0.123209 8.14497e-22)
(0.985231 -0.134477 2.44086e-21)
(0.9633 -0.14558 -2.96475e-22)
(0.940628 -0.156402 3.1278e-22)
(0.916763 -0.167236 -8.89496e-22)
(0.892597 -0.177497 -8.95478e-21)
(0.869621 -0.186094 -4.29724e-21)
(0.848048 -0.192519 -1.07656e-21)
(1.15217 2.77681e-05 1.16892e-26)
(1.15225 7.89205e-05 -1.48843e-21)
(1.15228 0.000118053 0)
(1.1523 0.000145043 2.52945e-26)
(1.1523 0.000175312 -1.72942e-21)
(1.15231 0.000196281 -1.79014e-21)
(1.15231 0.000219073 2.81819e-26)
(1.15232 0.000236624 -4.0322e-23)
(1.15232 0.000255137 6.03267e-26)
(1.15233 0.000271224 1.02366e-21)
(1.15233 0.000288293 1.12269e-21)
(1.15234 0.000304878 -2.55944e-21)
(1.15235 0.000322995 8.61566e-26)
(1.15236 0.000342166 -1.10408e-25)
(1.15238 0.000363691 -1.02708e-21)
(1.1524 0.000387601 -1.395e-25)
(1.15242 0.000414829 -3.61131e-23)
(1.15245 0.000445622 1.74899e-21)
(1.15248 0.000480675 2.45356e-25)
(1.15251 0.00052029 -2.57516e-21)
(1.15255 0.000564955 1.86867e-23)
(1.1526 0.000614839 -1.83059e-21)
(1.15265 0.000670182 0)
(1.1527 0.000730891 -2.55549e-21)
(1.15276 0.000796845 1.48094e-21)
(1.15283 0.000867578 0)
(1.15291 0.000942461 0)
(1.153 0.00102054 -2.14478e-24)
(1.15309 0.00110063 2.27295e-24)
(1.1532 0.00118118 0)
(1.15332 0.00126035 -5.31075e-24)
(1.15345 0.00133596 -1.41721e-21)
(1.1536 0.00140554 0)
(1.15376 0.00146632 1.41703e-21)
(1.15395 0.00151519 0)
(1.15415 0.00154883 -1.10614e-21)
(1.15438 0.00156367 0)
(1.15463 0.00155587 4.56067e-23)
(1.15491 0.00152149 -2.46598e-22)
(1.15522 0.00145635 6.36779e-22)
(1.15556 0.00135612 -1.33611e-21)
(1.15593 0.00121639 1.94698e-23)
(1.15633 0.00103248 -4.86143e-23)
(1.15675 0.000799679 2.96442e-23)
(1.1572 0.000513057 2.85539e-21)
(1.15768 0.000167424 -4.11699e-21)
(1.15817 -0.000242473 2.17542e-22)
(1.15868 -0.000722332 6.55428e-21)
(1.15918 -0.00127809 -4.19109e-21)
(1.15968 -0.00191562 -4.86942e-21)
(1.16016 -0.00264153 -5.63631e-21)
(1.16061 -0.00346259 7.30754e-21)
(1.16101 -0.00438574 4.49371e-22)
(1.16135 -0.00541836 0)
(1.16159 -0.00656798 8.64622e-22)
(1.16173 -0.00784259 -8.42029e-21)
(1.16173 -0.00925053 9.26484e-21)
(1.16157 -0.0108002 0)
(1.1612 -0.0125009 -1.24844e-20)
(1.1606 -0.0143618 7.59087e-22)
(1.15972 -0.0163942 0)