/*--------------------------------*- C++ -*----------------------------------*\
  =========                 |
  \\      /  F ield         | OpenFOAM: The Open Source CFD Toolbox
   \\    /   O peration     | Website:  https://openfoam.org
    \\  /    A nd           | Version:  9
     \\/     M anipulation  |
\*---------------------------------------------------------------------------*/
FoamFile
{
    format      ascii;
    class       volScalarField;
    location    "750";
    object      gammaInt;
}
// * * * * * * * * * * * * * * * * * * * * * * * * * * * * * * * * * * * * * //

dimensions      [0 0 0 0 0 0 0];

internalField   nonuniform List<scalar> 
13354
(
0.727685
0.664286
0.61632
0.58245
0.558103
0.53687
0.513123
0.483447
0.45579
0.286118
0.221473
0.231305
0.170033
0.814166
0.76488
0.71561
0.673387
0.639191
0.607326
0.572088
0.532304
0.494092
0.45311
0.409328
0.332197
0.409643
0.860669
0.833054
0.795374
0.755144
0.718023
0.680616
0.635243
0.581957
0.528188
0.488875
0.440792
0.499505
0.402638
0.885569
0.872797
0.848012
0.814863
0.780808
0.74551
0.698184
0.633918
0.562259
0.508074
0.463406
0.461361
0.419656
0.901856
0.896411
0.880827
0.85515
0.82598
0.79689
0.755393
0.687552
0.601177
0.529533
0.467587
0.451664
0.427568
0.91459
0.912507
0.902748
0.883342
0.858077
0.834517
0.802715
0.7388
0.642807
0.552194
0.464254
0.480128
0.426368
0.925156
0.925573
0.919284
0.904499
0.88245
0.861475
0.839115
0.784353
0.684135
0.574169
0.464694
0.538826
0.422187
0.934972
0.937882
0.93415
0.921501
0.900738
0.878766
0.863988
0.820693
0.721725
0.596037
0.473206
0.5856
0.411993
0.946083
0.950933
0.947784
0.936193
0.915388
0.89065
0.877934
0.844678
0.751121
0.616938
0.485675
0.594683
0.398296
0.955275
0.96099
0.958264
0.944778
0.922234
0.895025
0.879778
0.854349
0.766985
0.632909
0.498022
0.578475
0.407656
0.950774
0.953021
0.95037
0.939248
0.919528
0.893317
0.87271
0.84451
0.764139
0.639428
0.507128
0.5544
0.466476
0.923316
0.914327
0.905218
0.894782
0.881018
0.8618
0.838867
0.808098
0.741093
0.635347
0.511564
0.531713
0.563331
0.878779
0.852904
0.830359
0.812931
0.799106
0.785629
0.770533
0.750829
0.705373
0.627285
0.518708
0.517484
0.661999
0.835802
0.796579
0.760365
0.732513
0.713424
0.700785
0.691513
0.690661
0.672297
0.62761
0.543889
0.521438
0.6446
0.809254
0.770596
0.73046
0.695936
0.670083
0.653669
0.647407
0.654527
0.657895
0.644045
0.593772
0.554775
0.63324
0.795341
0.770401
0.740164
0.707523
0.676626
0.651916
0.638301
0.641169
0.653913
0.662344
0.642757
0.607169
0.647451
0.783103
0.776289
0.764353
0.744134
0.714141
0.681177
0.655407
0.645577
0.650594
0.662649
0.659524
0.64156
0.660209
0.769705
0.776417
0.782362
0.777106
0.755606
0.71772
0.677202
0.650074
0.637523
0.631707
0.624801
0.612394
0.61779
0.757027
0.770383
0.786064
0.792189
0.77502
0.7367
0.681074
0.632657
0.601855
0.584305
0.573461
0.561746
0.560307
0.746321
0.759521
0.778257
0.785593
0.767573
0.716155
0.656372
0.603193
0.56581
0.541461
0.526623
0.512893
0.507252
0.740226
0.747348
0.761284
0.764847
0.731746
0.679228
0.624569
0.576286
0.539037
0.510685
0.491481
0.473835
0.464524
0.738625
0.738866
0.739568
0.726377
0.685205
0.639299
0.595692
0.555829
0.521023
0.489902
0.46644
0.444166
0.431458
0.741817
0.725465
0.714545
0.676663
0.638674
0.605005
0.572664
0.539393
0.506139
0.472885
0.445969
0.419666
0.404596
0.739495
0.705297
0.661715
0.624716
0.60011
0.57804
0.55287
0.522586
0.4892
0.454418
0.425319
0.396632
0.380633
0.722835
0.655899
0.607194
0.585987
0.572394
0.554844
0.531283
0.500968
0.466678
0.431162
0.401782
0.372685
0.356613
0.664329
0.595792
0.57058
0.561888
0.550163
0.530247
0.503786
0.471714
0.437025
0.402576
0.374397
0.345605
0.330471
0.601137
0.563377
0.552033
0.542022
0.524792
0.49917
0.468872
0.43524
0.400861
0.369631
0.343046
0.316709
0.305293
0.579079
0.549624
0.535018
0.515053
0.489962
0.458969
0.426809
0.394698
0.364351
0.336816
0.312657
0.294281
0.290092
0.566486
0.530493
0.506409
0.479185
0.449237
0.415889
0.385671
0.358699
0.335584
0.315291
0.301924
0.297208
0.307192
0.542297
0.501284
0.470297
0.440904
0.412269
0.385551
0.364555
0.347675
0.333132
0.325035
0.327737
0.341176
0.365205
0.509464
0.471218
0.446654
0.427525
0.404703
0.386032
0.373666
0.366857
0.365122
0.375538
0.394806
0.421183
0.449775
0.504715
0.470094
0.451631
0.439259
0.423517
0.413789
0.413473
0.416259
0.42866
0.454128
0.484062
0.512535
0.534121
0.525376
0.491851
0.477345
0.47463
0.46399
0.460357
0.466783
0.47988
0.50502
0.539629
0.571125
0.59154
0.599542
0.576052
0.537241
0.518122
0.511808
0.505542
0.507711
0.520472
0.543173
0.57733
0.614512
0.639815
0.647093
0.641723
0.621207
0.57987
0.555428
0.543949
0.540427
0.547711
0.566635
0.596913
0.635734
0.670215
0.685448
0.679931
0.66539
0.682365
0.656552
0.613632
0.586193
0.570357
0.567432
0.578143
0.601914
0.63709
0.676845
0.705706
0.710854
0.696111
0.677259
0.641138
0.38905
0.351534
0.374325
0.481754
0.509684
0.529819
0.585109
0.671444
0.676239
0.638194
0.61113
0.591675
0.587482
0.59949
0.625971
0.66329
0.701354
0.723891
0.721328
0.70172
0.68225
0.654672
0.39997
0.349524
0.363176
0.428142
0.483318
0.492745
0.548566
0.659798
0.679438
0.652557
0.629605
0.608785
0.602158
0.613239
0.639975
0.676998
0.711914
0.728824
0.721581
0.700694
0.682791
0.664257
0.414904
0.350683
0.356936
0.394062
0.442226
0.476262
0.53124
0.627673
0.66338
0.656101
0.642054
0.621995
0.612635
0.621027
0.645676
0.680405
0.711624
0.724263
0.714833
0.694885
0.679534
0.669688
0.43351
0.353977
0.353688
0.373789
0.408738
0.459977
0.510337
0.58362
0.631944
0.645748
0.645073
0.631024
0.62012
0.624436
0.644746
0.675683
0.703331
0.713115
0.703107
0.684931
0.67227
0.667675
0.45542
0.359175
0.352219
0.361995
0.384086
0.427426
0.488947
0.537773
0.583172
0.619832
0.638043
0.634177
0.624362
0.624929
0.639546
0.665345
0.689423
0.697432
0.687649
0.671071
0.660605
0.658276
0.479281
0.36687
0.352311
0.355226
0.367513
0.397751
0.451569
0.50048
0.536599
0.578849
0.614597
0.628526
0.625467
0.624571
0.632969
0.652075
0.671999
0.678778
0.669367
0.653631
0.644423
0.653312
0.645244
0.504582
0.377841
0.354097
0.351651
0.357194
0.375788
0.414958
0.467433
0.497517
0.531893
0.577496
0.611249
0.620864
0.623353
0.627064
0.63852
0.653126
0.658453
0.649115
0.633236
0.624096
0.638022
0.631143
0.529207
0.392951
0.358171
0.350523
0.351174
0.361294
0.386494
0.426534
0.467665
0.493006
0.534466
0.579365
0.607693
0.619201
0.621062
0.625909
0.634905
0.637925
0.627946
0.610919
0.60051
0.6251
0.617717
0.549877
0.411835
0.365121
0.351507
0.348065
0.35241
0.367221
0.393989
0.430343
0.465187
0.496003
0.537927
0.581308
0.607147
0.613526
0.614683
0.618503
0.618247
0.607167
0.588074
0.575062
0.614552
0.605927
0.565972
0.434711
0.375529
0.354842
0.347216
0.347312
0.355156
0.371649
0.398186
0.435133
0.466683
0.496148
0.543124
0.583489
0.59987
0.603664
0.605155
0.601222
0.588132
0.566191
0.549317
0.606171
0.596158
0.577761
0.460332
0.390394
0.361212
0.348501
0.344737
0.347953
0.357469
0.37469
0.40366
0.443093
0.465356
0.500113
0.546169
0.578433
0.591254
0.59465
0.588448
0.572471
0.547178
0.525091
0.599614
0.588372
0.581033
0.486253
0.409292
0.370915
0.352196
0.344267
0.343898
0.348729
0.359054
0.378453
0.409365
0.441138
0.466404
0.501865
0.542799
0.57459
0.587075
0.57941
0.560724
0.532065
0.504252
0.594538
0.582335
0.579665
0.512354
0.431909
0.384819
0.35884
0.346058
0.341928
0.343447
0.349176
0.361075
0.382096
0.4113
0.441365
0.464817
0.500936
0.547767
0.572943
0.570772
0.553132
0.521898
0.488214
0.590636
0.57771
0.576216
0.535222
0.457348
0.403053
0.369293
0.35035
0.341999
0.340401
0.343101
0.349954
0.363025
0.384513
0.41481
0.439371
0.461623
0.508241
0.54644
0.558356
0.547694
0.517756
0.478824
0.587647
0.574192
0.572184
0.552943
0.483358
0.424893
0.383873
0.357978
0.344341
0.339291
0.33933
0.342971
0.350686
0.364674
0.388085
0.419518
0.436693
0.465685
0.505596
0.539012
0.543027
0.517642
0.475876
0.585378
0.571516
0.56828
0.567422
0.509209
0.449749
0.402518
0.369574
0.349729
0.340121
0.337254
0.33848
0.342909
0.351439
0.366916
0.39165
0.417056
0.436983
0.462893
0.507098
0.529898
0.517567
0.479202
0.583745
0.569499
0.564778
0.571933
0.532481
0.476294
0.425148
0.385553
0.358751
0.343476
0.336887
0.335739
0.33791
0.342989
0.352426
0.369051
0.392666
0.416362
0.433442
0.467892
0.502278
0.510568
0.485535
0.582723
0.568083
0.561751
0.571129
0.550749
0.502454
0.450563
0.405501
0.371873
0.350246
0.338766
0.334556
0.33471
0.337521
0.343116
0.353333
0.370432
0.394777
0.413369
0.43222
0.4646
0.494213
0.486794
0.582315
0.567299
0.559392
0.56781
0.564424
0.527389
0.477817
0.4293
0.389402
0.360873
0.343583
0.33525
0.332857
0.333897
0.337114
0.343198
0.354068
0.372657
0.398104
0.410738
0.427654
0.461864
0.476518
0.582521
0.567193
0.55792
0.563847
0.570911
0.548518
0.505639
0.456328
0.411195
0.375767
0.351679
0.338268
0.332582
0.331565
0.333113
0.336727
0.343248
0.355253
0.375279
0.394768
0.407216
0.424493
0.451754
0.583353
0.567792
0.557415
0.560431
0.571231
0.564196
0.531483
0.484993
0.436972
0.394924
0.363533
0.344003
0.334228
0.330654
0.330502
0.332456
0.336341
0.343441
0.356512
0.374826
0.392186
0.403963
0.420903
0.584831
0.569119
0.557897
0.558148
0.569044
0.57614
0.554947
0.514467
0.465956
0.418476
0.379333
0.352919
0.338167
0.331423
0.329253
0.329698
0.331823
0.335906
0.343591
0.356462
0.374928
0.389641
0.400481
0.605443
0.586986
0.571205
0.559377
0.557247
0.566494
0.580173
0.573897
0.543088
0.497398
0.445824
0.399121
0.365155
0.344711
0.334146
0.329528
0.328286
0.328956
0.331055
0.335368
0.343178
0.356754
0.374517
0.386593
0.608224
0.589864
0.574088
0.561866
0.55782
0.564783
0.5804
0.588088
0.569183
0.529761
0.476235
0.42231
0.380538
0.353902
0.338998
0.331497
0.328299
0.327449
0.328034
0.330198
0.334545
0.342859
0.356715
0.37328
0.631903
0.611708
0.593515
0.577818
0.565386
0.559889
0.56454
0.579681
0.597913
0.592707
0.562035
0.508407
0.447945
0.398546
0.365463
0.345942
0.335254
0.329826
0.327321
0.326457
0.327045
0.329158
0.333687
0.342374
0.35597
0.635941
0.615982
0.598005
0.58246
0.569978
0.563456
0.566078
0.579664
0.602275
0.612345
0.593139
0.540892
0.474949
0.418287
0.378989
0.354728
0.340732
0.332938
0.328608
0.326284
0.325446
0.325936
0.327994
0.332757
0.341521
0.640795
0.621117
0.603405
0.58809
0.575701
0.568534
0.569534
0.581282
0.604996
0.628357
0.622002
0.572149
0.501598
0.438746
0.393661
0.364987
0.347712
0.337547
0.33139
0.327506
0.325314
0.324379
0.324671
0.326785
0.331677
0.646547
0.627192
0.6098
0.594793
0.582627
0.575147
0.57498
0.585028
0.608287
0.641663
0.647595
0.600493
0.526353
0.458316
0.408545
0.375953
0.355819
0.343451
0.335544
0.330214
0.326611
0.324368
0.323164
0.323358
0.325558
0.653269
0.634283
0.617272
0.602663
0.590853
0.583347
0.582444
0.591156
0.613341
0.651352
0.668779
0.624208
0.547735
0.475728
0.422231
0.386784
0.364347
0.350253
0.340946
0.334256
0.329415
0.325845
0.323301
0.321898
0.322111
0.661038
0.64247
0.625913
0.61179
0.600468
0.593184
0.591967
0.599735
0.620773
0.660331
0.684735
0.641793
0.564373
0.489909
0.433754
0.396276
0.372518
0.357314
0.347091
0.339544
0.333563
0.328856
0.325014
0.322179
0.32075
0.669923
0.651826
0.63579
0.622249
0.61156
0.604708
0.603495
0.610731
0.630641
0.669731
0.694827
0.652189
0.575175
0.499983
0.442451
0.403743
0.379299
0.363871
0.353428
0.345471
0.338948
0.333258
0.328305
0.324151
0.321206
0.679977
0.662424
0.64698
0.634091
0.624132
0.617872
0.616959
0.62384
0.64265
0.679258
0.69853
0.654923
0.579536
0.505368
0.447878
0.408849
0.384247
0.36903
0.35907
0.351545
0.344919
0.33888
0.33309
0.327763
0.323484
0.691178
0.674243
0.65944
0.647275
0.638147
0.63255
0.631956
0.638577
0.655658
0.687127
0.695494
0.65012
0.577397
0.505858
0.449839
0.411467
0.387264
0.37254
0.3633
0.356695
0.350925
0.345066
0.339075
0.33309
0.327524
0.703438
0.687203
0.67311
0.661657
0.6533
0.648301
0.64799
0.653734
0.668191
0.690915
0.685675
0.638437
0.569237
0.501683
0.44842
0.411658
0.38843
0.37447
0.36603
0.360398
0.35579
0.351081
0.34565
0.339565
0.333455
0.716475
0.700978
0.687599
0.676817
0.669119
0.664397
0.663673
0.66782
0.677047
0.686377
0.669394
0.620914
0.555961
0.493431
0.44397
0.409656
0.387951
0.375026
0.367447
0.362711
0.359167
0.355738
0.351675
0.346613
0.340489
0.729829
0.715098
0.702444
0.692046
0.68447
0.679419
0.677606
0.677778
0.679773
0.673505
0.647559
0.598863
0.538764
0.481954
0.437054
0.405837
0.386109
0.374469
0.367818
0.363897
0.361228
0.358863
0.356119
0.352532
0.347748
0.742662
0.728554
0.716366
0.705982
0.698021
0.691412
0.6864
0.681127
0.671289
0.653569
0.62149
0.573751
0.518944
0.468246
0.428368
0.400679
0.383251
0.373082
0.367414
0.364246
0.362289
0.360731
0.359002
0.356687
0.353447
0.753786
0.740103
0.728099
0.716843
0.707039
0.697452
0.687789
0.673131
0.653897
0.628292
0.592685
0.547007
0.497771
0.453305
0.41863
0.394685
0.379735
0.371139
0.366478
0.364014
0.362643
0.361688
0.360685
0.359296
0.357274
0.761392
0.747545
0.734828
0.721881
0.709344
0.69458
0.677344
0.655666
0.629966
0.599519
0.562614
0.519921
0.47638
0.438041
0.408523
0.388336
0.375899
0.368887
0.365215
0.363401
0.362522
0.362023
0.361531
0.360779
0.359602
0.76334
0.748852
0.734787
0.718514
0.700942
0.680793
0.657972
0.631443
0.601802
0.569014
0.532592
0.493578
0.455688
0.423205
0.398612
0.382041
0.372022
0.366529
0.363784
0.362555
0.362091
0.361946
0.361821
0.361503
0.360888
0.757214
0.740951
0.723999
0.704506
0.683057
0.65897
0.632379
0.602961
0.57146
0.538301
0.503694
0.468804
0.436382
0.409366
0.389333
0.376108
0.36832
0.364212
0.362299
0.361582
0.361466
0.361601
0.361748
0.361735
0.361496
0.741776
0.723891
0.704577
0.682594
0.658385
0.631734
0.602993
0.572356
0.540653
0.50859
0.476721
0.446172
0.418924
0.396896
0.380971
0.370739
0.364927
0.362031
0.360835
0.360553
0.360725
0.361085
0.361442
0.361652
0.361673
0.719338
0.700083
0.678977
0.655264
0.629348
0.601377
0.571868
0.541349
0.510714
0.480768
0.452212
0.426024
0.403566
0.385997
0.373675
0.366036
0.361912
0.360034
0.359434
0.359511
0.359922
0.360466
0.36099
0.361371
0.361581
0.691993
0.671689
0.649379
0.624678
0.598011
0.569778
0.540624
0.511258
0.482586
0.455424
0.430468
0.408504
0.39039
0.37672
0.367479
0.362018
0.359286
0.358236
0.358118
0.358487
0.359094
0.359791
0.360452
0.360971
0.361326
0.661563
0.640584
0.617642
0.592636
0.566039
0.53841
0.510471
0.483008
0.456891
0.432883
0.411599
0.3936
0.379344
0.369007
0.362333
0.358646
0.357027
0.35663
0.356893
0.357498
0.358268
0.359094
0.359873
0.360507
0.360977
0.62958
0.608311
0.585268
0.560559
0.534703
0.508348
0.482245
0.457188
0.433975
0.413267
0.395556
0.381179
0.370272
0.36272
0.358127
0.355846
0.355092
0.3552
0.355762
0.356558
0.357467
0.358404
0.359283
0.360015
0.360581
0.597276
0.57609
0.553416
0.529503
0.504915
0.480327
0.456478
0.434126
0.413966
0.396535
0.382177
0.371022
0.362955
0.357672
0.354725
0.353529
0.353434
0.353927
0.354723
0.355678
0.356705
0.35774
0.358707
0.359521
0.360165
0.5656
0.544837
0.522929
0.500218
0.477285
0.454798
0.433455
0.41394
0.396832
0.38253
0.371225
0.362863
0.357142
0.35366
0.351982
0.351608
0.352008
0.352795
0.35378
0.354868
0.355999
0.357119
0.358161
0.359045
0.35975
0.535247
0.51521
0.494388
0.473185
0.452177
0.431994
0.41327
0.396598
0.382426
0.371015
0.362412
0.356404
0.352571
0.350485
0.349768
0.350009
0.350779
0.351795
0.352934
0.354138
0.355359
0.356552
0.357657
0.358595
0.359344
0.506699
0.487641
0.468155
0.448679
0.42976
0.411976
0.395879
0.381955
0.37052
0.361706
0.355428
0.351351
0.348997
0.347969
0.347972
0.348672
0.349724
0.35092
0.35219
0.353493
0.354791
0.356045
0.357197
0.358174
0.358946
0.480264
0.462389
0.444422
0.426812
0.410065
0.394684
0.381138
0.369792
0.360841
0.354295
0.349962
0.347425
0.346202
0.345967
0.346507
0.347555
0.348826
0.350171
0.351551
0.352939
0.354301
0.355599
0.356782
0.357775
0.358548
0.456114
0.439574
0.423252
0.407583
0.393016
0.379977
0.368837
0.359849
0.353091
0.348473
0.345722
0.344382
0.344009
0.344367
0.345317
0.346635
0.348081
0.34955
0.351023
0.35248
0.353889
0.355214
0.356404
0.357391
0.358134
0.434312
0.419217
0.404612
0.3909
0.378466
0.367649
0.358727
0.35184
0.346969
0.343947
0.342449
0.342019
0.342283
0.343094
0.344366
0.3459
0.347489
0.349061
0.35061
0.352117
0.353552
0.35488
0.356052
0.357001
0.357678
0.414846
0.401265
0.388403
0.376618
0.366221
0.357466
0.350538
0.345478
0.342189
0.340454
0.339927
0.340183
0.340931
0.3421
0.343635
0.345346
0.347053
0.348706
0.350309
0.351845
0.353281
0.354584
0.355707
0.35658
0.357146
0.397641
0.385603
0.374469
0.364538
0.356045
0.349159
0.343979
0.340469
0.338473
0.337751
0.33797
0.338752
0.339884
0.341351
0.343108
0.344965
0.346765
0.348478
0.350112
0.351649
0.353057
0.354303
0.355338
0.35609
0.356487
0.382612
0.372117
0.362663
0.354487
0.347738
0.342512
0.338835
0.336609
0.335645
0.335709
0.336498
0.337692
0.339141
0.340863
0.342805
0.344776
0.346641
0.348385
0.350019
0.351524
0.352869
0.354018
0.354918
0.355493
0.355652
0.36953
0.360534
0.35267
0.3461
0.340896
0.337092
0.334658
0.333457
0.3333
0.333984
0.335245
0.336806
0.338555
0.34052
0.342629
0.344695
0.346604
0.348356
0.349964
0.351409
0.352656
0.353667
0.354384
0.354717
0.354547
0.358552
0.351035
0.344697
0.339626
0.335826
0.33328
0.331914
0.331568
0.332064
0.333233
0.334847
0.336664
0.338614
0.340727
0.342913
0.344992
0.346874
0.348569
0.350089
0.351412
0.352498
0.353302
0.353756
0.353758
0.353153
0.348543
0.342311
0.337244
0.333353
0.330587
0.328903
0.328212
0.328366
0.329254
0.330795
0.332808
0.335057
0.337434
0.339909
0.342346
0.344573
0.346533
0.348254
0.349748
0.350993
0.351947
0.35255
0.352717
0.352315
0.351134
0.342008
0.337236
0.33362
0.331116
0.329639
0.329125
0.32947
0.330546
0.332294
0.334631
0.337265
0.339816
0.3421
0.34415
0.345985
0.34763
0.349079
0.350322
0.351353
0.352126
0.352582
0.352647
0.352214
0.351129
0.349152
0.332481
0.328501
0.325532
0.323433
0.322083
0.321438
0.321397
0.321872
0.322842
0.324159
0.3255
0.326789
0.328464
0.330941
0.334204
0.337902
0.341012
0.343505
0.345467
0.34695
0.347938
0.348367
0.348125
0.346987
0.344558
0.329809
0.326591
0.324239
0.322627
0.321622
0.321154
0.321355
0.322323
0.324124
0.326624
0.329515
0.33267
0.336267
0.340299
0.344432
0.34816
0.35104
0.353181
0.354691
0.355561
0.355675
0.354832
0.352779
0.349167
0.343706
0.323031
0.324075
0.325762
0.328051
0.330864
0.334006
0.337201
0.340104
0.342479
0.344275
0.345578
0.346505
0.347096
0.347311
0.347097
0.346442
0.345388
0.344061
0.342578
0.341037
0.339461
0.337775
0.335917
0.333764
0.330872
0.943677
0.97781
0.983203
0.984475
0.985067
0.985466
0.985769
0.985979
0.986108
0.986165
0.986162
0.986108
0.986016
0.985898
0.985764
0.985623
0.985477
0.985323
0.985149
0.984935
0.984651
0.984259
0.983712
0.982949
0.981897
0.980459
0.97852
0.975942
0.972567
0.968225
0.962739
0.955935
0.947654
0.937769
0.926191
0.912878
0.897848
0.881166
0.862956
0.84339
0.822687
0.801098
0.778899
0.756376
0.733808
0.711461
0.689583
0.668394
0.648082
0.628813
0.610718
0.593909
0.57847
0.564467
0.551926
0.540862
0.531241
0.523008
0.516078
0.510329
0.505611
0.501738
0.498492
0.495627
0.492871
0.489942
0.486566
0.482473
0.477396
0.471057
0.463084
0.4529
0.441557
0.429246
0.416114
0.401861
0.386089
0.368617
0.349664
0.330751
0.314784
0.305487
0.302724
0.301273
0.298662
0.29611
0.295183
0.295267
0.295345
0.29539
0.295475
0.295704
0.296314
0.297801
0.300955
0.306395
0.312826
0.319425
0.325734
0.947316
0.975289
0.982853
0.984745
0.985401
0.985769
0.986047
0.986255
0.986403
0.98649
0.986524
0.986509
0.986448
0.986347
0.986211
0.986045
0.98586
0.985662
0.985462
0.985264
0.98507
0.984877
0.984675
0.984451
0.98419
0.983873
0.983477
0.982975
0.982331
0.981499
0.980414
0.978989
0.977115
0.974657
0.97146
0.967351
0.962152
0.955687
0.947799
0.938363
0.927295
0.914571
0.900228
0.884378
0.867186
0.848878
0.829718
0.809998
0.790008
0.770049
0.750398
0.731316
0.713057
0.695876
0.680002
0.665653
0.652973
0.642069
0.632991
0.625715
0.620153
0.616117
0.613341
0.611441
0.609931
0.608228
0.605714
0.601819
0.596019
0.588186
0.57845
0.566907
0.554529
0.541624
0.528791
0.515961
0.502432
0.48618
0.461246
0.422295
0.368473
0.32498
0.31069
0.309283
0.307743
0.30151
0.295565
0.295473
0.295497
0.295514
0.295546
0.295662
0.296181
0.298127
0.303426
0.311981
0.319379
0.327952
0.336327
0.948831
0.975376
0.98288
0.985012
0.985733
0.986101
0.986359
0.986553
0.986691
0.986777
0.986815
0.986812
0.986771
0.986698
0.986596
0.986468
0.986317
0.986144
0.985951
0.985739
0.985507
0.985251
0.984965
0.984635
0.984244
0.983768
0.983177
0.982431
0.981483
0.980271
0.978725
0.976763
0.97429
0.9712
0.967372
0.962678
0.956984
0.950161
0.942089
0.932667
0.921824
0.909523
0.895785
0.880683
0.864352
0.84698
0.828802
0.810085
0.791118
0.772186
0.753573
0.735548
0.718364
0.702268
0.687513
0.674314
0.662846
0.653228
0.645493
0.639607
0.635445
0.632754
0.631187
0.630253
0.629333
0.6277
0.624624
0.619478
0.611636
0.601205
0.588774
0.574226
0.55937
0.544557
0.531113
0.518699
0.504881
0.485028
0.450584
0.398122
0.342234
0.308362
0.296897
0.294899
0.294885
0.295138
0.295466
0.295529
0.295537
0.295548
0.295601
0.295896
0.297239
0.301743
0.310603
0.318674
0.326945
0.334455
0.340283
0.951903
0.975446
0.98303
0.985337
0.986101
0.986466
0.986706
0.986889
0.987023
0.98711
0.987155
0.987161
0.987132
0.987072
0.986984
0.986872
0.986738
0.986587
0.98642
0.986239
0.986045
0.985835
0.985603
0.985341
0.985033
0.98466
0.984196
0.983612
0.982868
0.981916
0.980697
0.979137
0.977146
0.974623
0.971448
0.967492
0.962614
0.956674
0.949543
0.941108
0.931283
0.920022
0.907332
0.893275
0.877977
0.86162
0.844432
0.826676
0.808642
0.790625
0.772913
0.755782
0.739496
0.724325
0.71053
0.698346
0.68796
0.679484
0.672941
0.668257
0.665254
0.663586
0.662785
0.662199
0.661024
0.658354
0.653295
0.64517
0.633271
0.617999
0.600449
0.580228
0.560974
0.543991
0.52898
0.515456
0.500291
0.477775
0.441055
0.389363
0.338586
0.308013
0.297298
0.295594
0.295475
0.295466
0.295458
0.295451
0.295449
0.295464
0.295633
0.296639
0.300374
0.309115
0.318573
0.327418
0.335212
0.341388
0.345857
0.95503
0.9759
0.983314
0.985704
0.986494
0.986855
0.987077
0.987247
0.987372
0.987455
0.9875
0.98751
0.987489
0.987439
0.987364
0.987265
0.987145
0.987005
0.986848
0.986674
0.986484
0.986277
0.986047
0.985787
0.985485
0.985123
0.984676
0.984116
0.983404
0.982492
0.981323
0.979825
0.977915
0.975494
0.97245
0.968663
0.964004
0.958344
0.951561
0.943553
0.934242
0.923589
0.911598
0.898332
0.883911
0.86851
0.852345
0.83567
0.818766
0.801917
0.785409
0.769517
0.754506
0.740649
0.728218
0.717453
0.708535
0.701566
0.696541
0.69333
0.691672
0.6911
0.690991
0.690496
0.688592
0.684171
0.676199
0.664001
0.646815
0.62547
0.601854
0.578442
0.556386
0.537334
0.521211
0.507013
0.491151
0.467298
0.429545
0.379525
0.332193
0.304716
0.296556
0.295519
0.295464
0.295466
0.295468
0.29547
0.295476
0.295554
0.296181
0.299126
0.307184
0.317008
0.326155
0.334232
0.34075
0.345538
0.34884
0.958252
0.976494
0.98368
0.986096
0.986894
0.987246
0.987453
0.98761
0.987726
0.987805
0.987849
0.987861
0.987844
0.987802
0.987735
0.987647
0.987539
0.987413
0.98727
0.987111
0.986936
0.986744
0.98653
0.986286
0.986002
0.98566
0.985238
0.984708
0.984033
0.983169
0.982061
0.980643
0.978834
0.976543
0.973664
0.970084
0.965682
0.960337
0.953938
0.946389
0.937621
0.927597
0.916326
0.903869
0.890343
0.875914
0.860791
0.845221
0.82947
0.813819
0.798549
0.783935
0.770243
0.75775
0.746736
0.737439
0.730033
0.724592
0.721066
0.719243
0.718753
0.718957
0.719026
0.717865
0.714188
0.706661
0.694132
0.676016
0.651471
0.624819
0.597106
0.570656
0.546338
0.525596
0.508684
0.494047
0.477927
0.453926
0.416903
0.369915
0.326861
0.302861
0.296257
0.295484
0.295453
0.295457
0.29546
0.295461
0.295482
0.295769
0.297729
0.304815
0.315371
0.325152
0.333904
0.340926
0.345999
0.349452
0.351698
0.961367
0.977187
0.9841
0.9865
0.987295
0.987635
0.987826
0.987971
0.988079
0.988152
0.988193
0.988206
0.988191
0.988153
0.988093
0.988013
0.987914
0.987797
0.987665
0.987516
0.987351
0.987168
0.986963
0.986729
0.986455
0.986126
0.985719
0.985207
0.984556
0.983723
0.982655
0.98129
0.979552
0.977354
0.974597
0.971176
0.96698
0.961899
0.95583
0.948688
0.940414
0.930975
0.920386
0.908708
0.896054
0.882585
0.868503
0.854042
0.839463
0.825038
0.811045
0.797756
0.785438
0.774373
0.764847
0.757087
0.751246
0.747356
0.745296
0.744748
0.745184
0.745743
0.745338
0.742574
0.735867
0.723663
0.70474
0.67868
0.649309
0.618319
0.587414
0.558944
0.533526
0.511936
0.494377
0.479537
0.463498
0.440007
0.404818
0.361359
0.322514
0.301435
0.296016
0.295464
0.295453
0.295458
0.29546
0.295464
0.295546
0.29647
0.301546
0.312802
0.323171
0.332866
0.340613
0.346177
0.349904
0.352269
0.35371
0.964317
0.977926
0.984551
0.986908
0.98769
0.988013
0.988191
0.988325
0.988424
0.988491
0.988529
0.988541
0.988528
0.988493
0.988438
0.988364
0.988273
0.988165
0.988042
0.987903
0.987747
0.987574
0.987379
0.987154
0.98689
0.986571
0.986177
0.98568
0.985048
0.984241
0.983208
0.98189
0.980215
0.978103
0.975461
0.972193
0.968194
0.963366
0.957617
0.950873
0.94308
0.934216
0.924296
0.913384
0.901591
0.889071
0.876019
0.862662
0.84925
0.836051
0.823338
0.811382
0.800456
0.790844
0.782826
0.776618
0.772336
0.769942
0.769222
0.769707
0.770664
0.770949
0.769156
0.763546
0.752213
0.733408
0.706747
0.675495
0.641746
0.607535
0.574992
0.5452
0.519188
0.497199
0.479358
0.464478
0.448788
0.426325
0.39337
0.353752
0.318953
0.300372
0.295844
0.29545
0.295451
0.295457
0.295459
0.295471
0.295735
0.298295
0.308338
0.320306
0.331119
0.339913
0.346239
0.350397
0.352967
0.354471
0.355291
0.967059
0.978688
0.985015
0.987311
0.988074
0.98838
0.988544
0.988667
0.988758
0.98882
0.988855
0.988865
0.988852
0.988819
0.988768
0.988699
0.988614
0.988514
0.988398
0.988267
0.98812
0.987954
0.987767
0.98755
0.987294
0.986983
0.986598
0.986113
0.985497
0.984711
0.983708
0.982431
0.980814
0.97878
0.976246
0.973121
0.969312
0.964729
0.95929
0.952931
0.945606
0.9373
0.928033
0.917868
0.906916
0.895326
0.883286
0.871015
0.858757
0.846775
0.835338
0.824716
0.815179
0.807015
0.800503
0.795828
0.793052
0.792042
0.792446
0.7936
0.794509
0.793682
0.789333
0.779341
0.761488
0.735153
0.703058
0.667389
0.630702
0.594652
0.561072
0.530728
0.50461
0.482677
0.464823
0.449995
0.434753
0.413482
0.383005
0.347196
0.31609
0.299578
0.295725
0.295442
0.29545
0.295456
0.295458
0.295498
0.29625
0.302434
0.315795
0.32817
0.338434
0.345824
0.350681
0.353628
0.355282
0.356124
0.356479
0.969553
0.97948
0.985483
0.987706
0.988445
0.988732
0.988884
0.988997
0.98908
0.989137
0.989168
0.989176
0.989163
0.989132
0.989083
0.989018
0.988938
0.988843
0.988734
0.988609
0.988469
0.98831
0.988128
0.987918
0.987668
0.987364
0.986987
0.986513
0.985911
0.985145
0.98417
0.982933
0.981371
0.979414
0.976984
0.973999
0.970374
0.966029
0.960893
0.954907
0.948038
0.940274
0.93164
0.922202
0.912068
0.901383
0.89033
0.879122
0.867997
0.857213
0.847036
0.837732
0.829571
0.822832
0.817786
0.81459
0.813213
0.813392
0.814596
0.815908
0.816016
0.813002
0.804658
0.788463
0.763263
0.731411
0.694856
0.656435
0.617809
0.580826
0.546902
0.516612
0.490576
0.468876
0.451194
0.436539
0.421809
0.401826
0.373796
0.341588
0.313798
0.298992
0.295638
0.295436
0.295449
0.295455
0.295458
0.295567
0.297441
0.30871
0.322783
0.335489
0.344713
0.350573
0.354107
0.356078
0.357028
0.357376
0.35739
0.971788
0.980297
0.98595
0.988089
0.9888
0.989069
0.989211
0.989314
0.98939
0.989441
0.989468
0.989474
0.98946
0.989429
0.989382
0.98932
0.989244
0.989154
0.989049
0.98893
0.988795
0.988642
0.988466
0.988261
0.988017
0.987719
0.987349
0.986884
0.986296
0.985548
0.9846
0.983401
0.981892
0.98001
0.977682
0.974834
0.971389
0.967276
0.962432
0.956811
0.950382
0.943143
0.935122
0.926386
0.917043
0.907235
0.897141
0.886967
0.876946
0.867332
0.858388
0.850375
0.843557
0.838201
0.834554
0.832733
0.832586
0.833674
0.835231
0.836028
0.834378
0.827863
0.813818
0.790495
0.759844
0.723505
0.684275
0.643893
0.604312
0.567171
0.533246
0.503321
0.477608
0.456262
0.438861
0.424449
0.410231
0.391488
0.365783
0.336841
0.311997
0.298574
0.295576
0.295431
0.295448
0.295453
0.29546
0.295733
0.300104
0.31523
0.330047
0.342168
0.349816
0.354241
0.356689
0.357906
0.358338
0.358331
0.3581
0.973794
0.981105
0.986411
0.988458
0.989139
0.989392
0.989523
0.989618
0.989688
0.989733
0.989756
0.989759
0.989744
0.989713
0.989667
0.989607
0.989534
0.989448
0.989347
0.989233
0.989103
0.988954
0.988783
0.988582
0.988342
0.988049
0.987686
0.98723
0.986654
0.985925
0.985002
0.98384
0.982384
0.980574
0.978346
0.975631
0.972361
0.968473
0.963914
0.958644
0.952641
0.945909
0.938478
0.930419
0.92184
0.912878
0.903709
0.894535
0.885584
0.877106
0.869358
0.862597
0.857073
0.853032
0.850687
0.850083
0.850924
0.852536
0.853862
0.853297
0.84872
0.837151
0.816253
0.787688
0.752558
0.713539
0.672317
0.630974
0.591188
0.554169
0.520664
0.491271
0.466003
0.445001
0.427896
0.413771
0.400069
0.382504
0.358922
0.332874
0.310619
0.298302
0.29553
0.295426
0.295446
0.295452
0.295466
0.296074
0.304393
0.32088
0.336804
0.347714
0.353773
0.356987
0.358612
0.359268
0.359325
0.35907
0.358673
0.975593
0.98189
0.986862
0.988813
0.989463
0.989699
0.989821
0.989909
0.989973
0.990013
0.990032
0.990033
0.990017
0.989985
0.98994
0.989881
0.98981
0.989727
0.98963
0.989519
0.989393
0.989248
0.989081
0.988884
0.988647
0.988358
0.988001
0.987553
0.986988
0.986276
0.985378
0.984252
0.982847
0.981108
0.978977
0.976392
0.973292
0.969623
0.965339
0.960408
0.954816
0.94857
0.941707
0.934299
0.926451
0.918303
0.910024
0.901812
0.893892
0.886507
0.87991
0.874347
0.87005
0.867233
0.866049
0.866452
0.867956
0.869599
0.86996
0.866998
0.858115
0.840063
0.814244
0.781271
0.743407
0.702361
0.660145
0.618519
0.578941
0.542358
0.509451
0.480597
0.455854
0.4352
0.418374
0.404519
0.391312
0.374815
0.353134
0.329613
0.309615
0.298166
0.295498
0.295422
0.295445
0.29545
0.295475
0.296717
0.309689
0.326992
0.342777
0.352137
0.356781
0.359025
0.360022
0.360274
0.360076
0.35966
0.359156
0.977205
0.982642
0.987299
0.989153
0.98977
0.989992
0.990106
0.990188
0.990246
0.990282
0.990297
0.990295
0.990278
0.990245
0.9902
0.990143
0.990073
0.989992
0.989898
0.989791