/*--------------------------------*- C++ -*----------------------------------*\
  =========                 |
  \\      /  F ield         | OpenFOAM: The Open Source CFD Toolbox
   \\    /   O peration     | Website:  https://openfoam.org
    \\  /    A nd           | Version:  9
     \\/     M anipulation  |
\*---------------------------------------------------------------------------*/
FoamFile
{
    format      ascii;
    class       volScalarField;
    location    "750";
    object      k;
}
// * * * * * * * * * * * * * * * * * * * * * * * * * * * * * * * * * * * * * //

dimensions      [0 2 -2 0 0 0 0];

internalField   nonuniform List<scalar> 
13354
(
0.000128437
0.000127206
0.000134394
0.000143377
0.000147106
0.00015418
0.000171428
0.00020298
0.000248837
0.000280019
0.000252306
0.0001971
0.000142582
0.000132596
0.000129498
0.000133453
0.000144251
0.000152084
0.000159893
0.000175008
0.000203922
0.000248726
0.000287741
0.000270377
0.000218498
0.000173262
0.000134598
0.000131082
0.000132789
0.000141992
0.000149499
0.000157623
0.000173484
0.000201974
0.000249022
0.000313599
0.00035109
0.000327151
0.000272091
0.000134756
0.000131518
0.000131986
0.000139272
0.000145236
0.000152672
0.000167792
0.000192878
0.000238625
0.000328309
0.000438289
0.000467423
0.000383254
0.000132871
0.000130194
0.000130699
0.000135617
0.000139861
0.000144986
0.000157045
0.000176553
0.000215651
0.000310821
0.000457119
0.000531817
0.000439225
0.000130434
0.000128437
0.00012833
0.000132202
0.000134667
0.00013632
0.000143836
0.000157755
0.000187258
0.000265389
0.000400378
0.000491105
0.000424856
0.000128016
0.000126569
0.000125352
0.000127991
0.000129892
0.000128925
0.000131893
0.000139993
0.000158962
0.000211165
0.000308902
0.000387852
0.000359281
0.000125126
0.000124173
0.000121707
0.000123372
0.000124331
0.000122912
0.000122562
0.000125492
0.000134834
0.000164116
0.000223417
0.000279438
0.000278021
0.000121074
0.000120639
0.000117796
0.000118254
0.000118935
0.000117229
0.000115495
0.000115153
0.000117874
0.000131381
0.000162247
0.000196704
0.000207993
0.000116228
0.00011635
0.000113441
0.000113233
0.000113402
0.000111676
0.000109484
0.000108101
0.000107774
0.000112275
0.000126017
0.000144897
0.000158196
0.000111352
0.000111734
0.000108739
0.000108087
0.000108058
0.000106285
0.000104157
0.000102754
0.000101514
0.000102105
0.000107188
0.000116625
0.000126882
0.00010667
0.00010702
0.000103882
0.000102986
0.000102921
0.000101492
9.95176e-05
9.83268e-05
9.70958e-05
9.63526e-05
9.79046e-05
0.000102379
0.000108876
0.000102112
0.000102294
9.9387e-05
9.82363e-05
9.80438e-05
9.7092e-05
9.55527e-05
9.45325e-05
9.35491e-05
9.25454e-05
9.27271e-05
9.47903e-05
9.88508e-05
9.77987e-05
9.77351e-05
9.52738e-05
9.3965e-05
9.35478e-05
9.3155e-05
9.20461e-05
9.11712e-05
9.04969e-05
8.9587e-05
8.9259e-05
9.01875e-05
9.28888e-05
9.35479e-05
9.34112e-05
9.15597e-05
9.03245e-05
8.95955e-05
8.95772e-05
8.89067e-05
8.79972e-05
8.74466e-05
8.6893e-05
8.6404e-05
8.6622e-05
8.85237e-05
8.98046e-05
8.9589e-05
8.83134e-05
8.72834e-05
8.63343e-05
8.63652e-05
8.59985e-05
8.50427e-05
8.44535e-05
8.39842e-05
8.35782e-05
8.36755e-05
8.49224e-05
8.6495e-05
8.62922e-05
8.53347e-05
8.44408e-05
8.34411e-05
8.34078e-05
8.3286e-05
8.22914e-05
8.16083e-05
8.10794e-05
8.07393e-05
8.08544e-05
8.16561e-05
8.31673e-05
8.29942e-05
8.22917e-05
8.15975e-05
8.08003e-05
8.07714e-05
8.08204e-05
7.98032e-05
7.90312e-05
7.84018e-05
7.79686e-05
7.8056e-05
7.8496e-05
8.01483e-05
8.00342e-05
7.95546e-05
7.90421e-05
7.84769e-05
7.8413e-05
7.85742e-05
7.75489e-05
7.67126e-05
7.5992e-05
7.54698e-05
7.54786e-05
7.54617e-05
7.72768e-05
7.72293e-05
7.7002e-05
7.66543e-05
7.62616e-05
7.61411e-05
7.64184e-05
7.5471e-05
7.45275e-05
7.37699e-05
7.32241e-05
7.31242e-05
7.26008e-05
7.46286e-05
7.46125e-05
7.45629e-05
7.43407e-05
7.40626e-05
7.40467e-05
7.43134e-05
7.34726e-05
7.24533e-05
7.16253e-05
7.1077e-05
7.08532e-05
6.99647e-05
7.21693e-05
7.2158e-05
7.22535e-05
7.21549e-05
7.18743e-05
7.19135e-05
7.2193e-05
7.14083e-05
7.04126e-05
6.95199e-05
6.89132e-05
6.85617e-05
6.75544e-05
6.98151e-05
6.97754e-05
6.99621e-05
6.9923e-05
6.97187e-05
6.9615e-05
7.00585e-05
6.93143e-05
6.82567e-05
6.73848e-05
6.67319e-05
6.62997e-05
6.53424e-05
6.75284e-05
6.74948e-05
6.77319e-05
6.76927e-05
6.75291e-05
6.73088e-05
6.78162e-05
6.7227e-05
6.60213e-05
6.51378e-05
6.44477e-05
6.39535e-05
6.31307e-05
6.52648e-05
6.52638e-05
6.55001e-05
6.54651e-05
6.53001e-05
6.50458e-05
6.55423e-05
6.50415e-05
6.38222e-05
6.285e-05
6.21238e-05
6.15966e-05
6.0942e-05
6.30823e-05
6.31174e-05
6.33126e-05
6.32243e-05
6.30799e-05
6.28052e-05
6.32981e-05
6.28204e-05
6.16171e-05
6.062e-05
5.98932e-05
5.93251e-05
5.87999e-05
6.09391e-05
6.10045e-05
6.11488e-05
6.09955e-05
6.08753e-05
6.06111e-05
6.10766e-05
6.06522e-05
5.94279e-05
5.84686e-05
5.7783e-05
5.71535e-05
5.67179e-05
5.88511e-05
5.8922e-05
5.90182e-05
5.88099e-05
5.86986e-05
5.84683e-05
5.89277e-05
5.85541e-05
5.73259e-05
5.63991e-05
5.57384e-05
5.50932e-05
5.47108e-05
5.68073e-05
5.68888e-05
5.69421e-05
5.66781e-05
5.65622e-05
5.63601e-05
5.6829e-05
5.65343e-05
5.52911e-05
5.44074e-05
5.3786e-05
5.31376e-05
5.27983e-05
5.48045e-05
5.48791e-05
5.49102e-05
5.45965e-05
5.44638e-05
5.42921e-05
5.4774e-05
5.45724e-05
5.33395e-05
5.24741e-05
5.18977e-05
5.12846e-05
5.09658e-05
5.28452e-05
5.29084e-05
5.29212e-05
5.2575e-05
5.24035e-05
5.22532e-05
5.27657e-05
5.26395e-05
5.14459e-05
5.06022e-05
5.00712e-05
4.95108e-05
4.92015e-05
5.09127e-05
5.09772e-05
5.09743e-05
5.06021e-05
5.04053e-05
5.027e-05
5.08039e-05
5.07353e-05
4.95937e-05
4.87671e-05
4.82462e-05
4.77796e-05
4.74989e-05
4.90187e-05
4.91117e-05
4.90968e-05
4.86993e-05
4.84765e-05
4.8359e-05
4.8897e-05
4.88741e-05
4.77932e-05
4.69651e-05
4.64717e-05
4.60664e-05
4.585e-05
4.7163e-05
4.73034e-05
4.72923e-05
4.68697e-05
4.6626e-05
4.6497e-05
4.70362e-05
4.70692e-05
4.60562e-05
4.52223e-05
4.47517e-05
4.4375e-05
4.42119e-05
4.53512e-05
4.55415e-05
4.55282e-05
4.50906e-05
4.48228e-05
4.46779e-05
4.52263e-05
4.53032e-05
4.43727e-05
4.3573e-05
4.31141e-05
4.27429e-05
4.2586e-05
4.35621e-05
4.35885e-05
4.38144e-05
4.37773e-05
4.33365e-05
4.30427e-05
4.29128e-05
4.34666e-05
4.35762e-05
4.27235e-05
4.19965e-05
4.15534e-05
4.11693e-05
4.09833e-05
4.23656e-05
4.25968e-05
4.23159e-05
4.17524e-05
4.14809e-05
4.14625e-05
4.14017e-05
4.15853e-05
4.1824e-05
4.18728e-05
4.21061e-05
4.20256e-05
4.16052e-05
4.13001e-05
4.12001e-05
4.1772e-05
4.18956e-05
4.11064e-05
4.04369e-05
4.00382e-05
3.96413e-05
3.94221e-05
4.07132e-05
4.0884e-05
4.05099e-05
3.99836e-05
3.98124e-05
3.98214e-05
3.97382e-05
3.99219e-05
4.01288e-05
4.01892e-05
4.0404e-05
4.02899e-05
3.99092e-05
3.96052e-05
3.95449e-05
4.01337e-05
4.02551e-05
3.95184e-05
3.88784e-05
3.85301e-05
3.81442e-05
3.7917e-05
3.90815e-05
3.91901e-05
3.87568e-05
3.8253e-05
3.81523e-05
3.819e-05
3.81085e-05
3.83003e-05
3.8477e-05
3.85207e-05
3.87172e-05
3.85825e-05
3.82629e-05
3.79762e-05
3.79394e-05
3.85293e-05
3.86501e-05
3.79613e-05
3.7337e-05
3.70253e-05
3.66792e-05
3.64694e-05
3.74856e-05
3.75207e-05
3.70473e-05
3.65701e-05
3.65096e-05
3.65753e-05
3.65112e-05
3.67157e-05
3.68412e-05
3.68644e-05
3.70476e-05
3.69139e-05
3.6664e-05
3.64082e-05
3.63871e-05
3.69609e-05
3.70786e-05
3.6441e-05
3.58342e-05
3.55456e-05
3.5257e-05
3.50725e-05
3.59427e-05
3.58792e-05
3.53805e-05
3.4937e-05
3.49004e-05
3.49803e-05
3.4952e-05
3.51555e-05
3.5212e-05
3.52201e-05
3.54022e-05
3.52882e-05
3.51199e-05
3.48847e-05
3.48814e-05
3.5441e-05
3.55367e-05
3.49525e-05
3.4367e-05
3.40929e-05
3.3856e-05
3.36999e-05
3.44187e-05
3.42778e-05
3.37658e-05
3.33713e-05
3.33516e-05
3.34302e-05
3.34437e-05
3.36204e-05
3.36107e-05
3.36139e-05
3.3797e-05
3.3699e-05
3.36034e-05
3.33864e-05
3.34115e-05
3.39632e-05
3.40233e-05
3.34826e-05
3.29146e-05
3.26599e-05
3.24786e-05
3.23434e-05
3.27039e-05
3.29354e-05
3.27307e-05
3.22228e-05
3.18944e-05
3.18903e-05
3.19487e-05
3.19864e-05
3.21174e-05
3.20552e-05
3.20676e-05
3.22513e-05
3.21551e-05
3.20966e-05
3.19078e-05
3.19696e-05
3.25098e-05
3.25411e-05
3.20359e-05
3.14796e-05
3.12501e-05
3.11159e-05
3.09953e-05
3.13059e-05
3.15073e-05
3.1246e-05
3.07631e-05
3.0511e-05
3.05239e-05
3.05474e-05
3.05854e-05
3.06584e-05
3.05639e-05
3.05935e-05
3.07723e-05
3.06718e-05
3.06292e-05
3.04618e-05
3.0562e-05
3.10916e-05
3.10995e-05
3.0629e-05
3.00872e-05
2.98702e-05
2.97719e-05
2.96666e-05
2.99538e-05
3.01314e-05
2.98221e-05
2.93832e-05
2.92105e-05
2.92334e-05
2.92184e-05
2.92434e-05
2.92557e-05
2.9147e-05
2.92017e-05
2.93723e-05
2.92589e-05
2.92194e-05
2.906e-05
2.91921e-05
2.97144e-05
2.97098e-05
2.92934e-05
2.87563e-05
2.85306e-05
2.84606e-05
2.83643e-05
2.86534e-05
2.87993e-05
2.84783e-05
2.80783e-05
2.79729e-05
2.79892e-05
2.79389e-05
2.79467e-05
2.7915e-05
2.78064e-05
2.78922e-05
2.80539e-05
2.79218e-05
2.7871e-05
2.77091e-05
2.78621e-05
2.83778e-05
2.83658e-05
2.80088e-05
2.7482e-05
2.72317e-05
2.71862e-05
2.7106e-05
2.74099e-05
2.75094e-05
2.71632e-05
2.68429e-05
2.67792e-05
2.67738e-05
2.6693e-05
2.66967e-05
2.66344e-05
2.65395e-05
2.66556e-05
2.68089e-05
2.66551e-05
2.65787e-05
2.64141e-05
2.6576e-05
2.70821e-05
2.70643e-05
2.6762e-05
2.62539e-05
2.59729e-05
2.59535e-05
2.58988e-05
2.62172e-05
2.62673e-05
2.59293e-05
2.56657e-05
2.56181e-05
2.55832e-05
2.548e-05
2.54632e-05
2.54024e-05
2.53365e-05
2.54774e-05
2.56201e-05
2.54467e-05
2.53374e-05
2.51716e-05
2.53337e-05
2.58266e-05
2.58106e-05
2.55654e-05
2.50758e-05
2.47596e-05
2.47679e-05
2.47461e-05
2.50775e-05
2.50779e-05
2.47561e-05
2.45322e-05
2.44826e-05
2.44217e-05
2.43078e-05
2.42815e-05
2.42288e-05
2.41853e-05
2.43402e-05
2.44663e-05
2.4284e-05
2.41485e-05
2.39798e-05
2.41482e-05
2.46192e-05
2.4607e-05
2.44237e-05
2.39595e-05
2.36099e-05
2.36416e-05
2.36515e-05
2.39892e-05
2.39396e-05
2.3634e-05
2.34311e-05
2.33696e-05
2.32907e-05
2.31858e-05
2.31545e-05
2.31014e-05
2.30715e-05
2.32307e-05
2.33415e-05
2.3161e-05
2.30118e-05
2.28394e-05
2.30279e-05
2.34691e-05
2.34572e-05
2.33389e-05
2.29086e-05
2.25325e-05
2.25766e-05
2.26087e-05
2.29479e-05
2.28451e-05
2.25485e-05
2.23561e-05
2.22814e-05
2.21933e-05
2.21095e-05
2.20722e-05
2.20262e-05
2.19862e-05
2.21488e-05
2.22537e-05
2.20826e-05
2.19262e-05
2.17567e-05
2.19813e-05
2.23856e-05
2.23613e-05
2.23089e-05
2.19255e-05
2.1528e-05
2.15676e-05
2.16136e-05
2.1945e-05
2.17838e-05
2.14892e-05
2.13037e-05
2.12178e-05
2.1135e-05
2.10722e-05
2.10217e-05
2.09605e-05
2.09365e-05
2.11095e-05
2.12112e-05
2.10534e-05
2.08957e-05
2.07419e-05
2.10096e-05
2.13778e-05
2.13423e-05
2.13385e-05
2.10041e-05
2.0588e-05
2.0611e-05
2.06656e-05
2.0966e-05
2.07424e-05
2.04503e-05
2.02753e-05
2.01848e-05
2.01124e-05
2.00682e-05
1.99986e-05
1.99321e-05
1.99314e-05
2.01247e-05
2.02249e-05
2.00796e-05
1.99222e-05
1.97988e-05
2.01072e-05
2.04408e-05
2.03788e-05
2.04251e-05
2.01425e-05
1.97061e-05
1.97015e-05
1.97664e-05
1.99918e-05
1.97132e-05
1.94324e-05
1.92742e-05
1.9186e-05
1.91263e-05
1.9091e-05
1.90147e-05
1.89625e-05
1.89801e-05
1.9196e-05
1.92981e-05
1.91661e-05
1.9011e-05
1.89236e-05
1.92634e-05
1.95626e-05
1.94742e-05
1.95673e-05
1.93337e-05
1.88765e-05
1.88384e-05
1.8916e-05
1.90152e-05
1.87015e-05
1.84396e-05
1.83035e-05
1.82218e-05
1.81752e-05
1.81448e-05
1.80685e-05
1.80398e-05
1.8088e-05
1.83293e-05
1.84331e-05
1.83103e-05
1.81561e-05
1.81052e-05
1.84694e-05
1.87319e-05
1.86262e-05
1.87591e-05
1.85748e-05
1.80985e-05
1.80222e-05
1.8114e-05
1.80388e-05
1.77125e-05
1.748e-05
1.73648e-05
1.72923e-05
1.72613e-05
1.72357e-05
1.71656e-05
1.71654e-05
1.72513e-05
1.75177e-05
1.76244e-05
1.7508e-05
1.73531e-05
1.73352e-05
1.77187e-05
1.79403e-05
1.78282e-05
1.79986e-05
1.78607e-05
1.73687e-05
1.72543e-05
1.73578e-05
1.70746e-05
1.67553e-05
1.65571e-05
1.64628e-05
1.64101e-05
1.63917e-05
1.637e-05
1.63117e-05
1.63394e-05
1.64587e-05
1.67476e-05
1.68568e-05
1.67442e-05
1.65901e-05
1.66052e-05
1.70073e-05
1.71832e-05
1.70719e-05
1.72794e-05
1.71883e-05
1.66859e-05
1.65322e-05
1.66401e-05
1.61357e-05
1.58405e-05
1.56771e-05
1.56042e-05
1.55692e-05
1.55684e-05
1.55485e-05
1.5504e-05
1.55555e-05
1.57022e-05
1.60071e-05
1.61145e-05
1.60032e-05
1.58527e-05
1.59039e-05
1.63222e-05
1.6451e-05
1.63495e-05
1.65956e-05
1.65516e-05
1.60426e-05
1.58485e-05
1.59548e-05
1.54898e-05
1.52362e-05
1.49758e-05
1.48444e-05
1.4791e-05
1.47688e-05
1.47896e-05
1.47695e-05
1.47445e-05
1.48088e-05
1.49758e-05
1.52883e-05
1.5388e-05
1.52739e-05
1.51302e-05
1.52215e-05
1.56509e-05
1.57343e-05
1.56471e-05
1.59286e-05
1.59378e-05
1.54326e-05
1.51986e-05
1.5298e-05
1.46495e-05
1.43863e-05
1.41635e-05
1.40615e-05
1.40211e-05
1.40172e-05
1.40556e-05
1.40346e-05
1.40212e-05
1.4099e-05
1.42815e-05
1.45908e-05
1.46766e-05
1.4554e-05
1.44193e-05
1.45541e-05
1.49873e-05
1.5027e-05
1.49577e-05
1.52735e-05
1.53358e-05
1.48414e-05
1.45711e-05
1.46643e-05
1.39083e-05
1.38453e-05
1.35887e-05
1.34034e-05
1.33249e-05
1.32974e-05
1.33151e-05
1.33641e-05
1.33423e-05
1.33367e-05
1.34258e-05
1.362e-05
1.39221e-05
1.39892e-05
1.38525e-05
1.37263e-05
1.3905e-05
1.43354e-05
1.4334e-05
1.42812e-05
1.46264e-05
1.47378e-05
1.42627e-05
1.39594e-05
1.40465e-05
1.31762e-05
1.30812e-05
1.28419e-05
1.26913e-05
1.2633e-05
1.26177e-05
1.26545e-05
1.27095e-05
1.26908e-05
1.26902e-05
1.27867e-05
1.2994e-05
1.32865e-05
1.33322e-05
1.31773e-05
1.30603e-05
1.32813e-05
1.3701e-05
1.36629e-05
1.3626e-05
1.39898e-05
1.4147e-05
1.36947e-05
1.33574e-05
1.34374e-05
1.24781e-05
1.23579e-05
1.21443e-05
1.20238e-05
1.19819e-05
1.19769e-05
1.20312e-05
1.20933e-05
1.2073e-05
1.20799e-05
1.21842e-05
1.24064e-05
1.26896e-05
1.2713e-05
1.25378e-05
1.24297e-05
1.26889e-05
1.30905e-05
1.30228e-05
1.30018e-05
1.33801e-05
1.3575e-05
1.31478e-05
1.27726e-05
1.2838e-05
1.18176e-05
1.16806e-05
1.14954e-05
1.14007e-05
1.13705e-05
1.1377e-05
1.14446e-05
1.15039e-05
1.14872e-05
1.15042e-05
1.1618e-05
1.18563e-05
1.21287e-05
1.21303e-05
1.19381e-05
1.18421e-05
1.21342e-05
1.25079e-05
1.24167e-05
1.24124e-05
1.28002e-05
1.30316e-05
1.26306e-05
1.22146e-05
1.2256e-05
1.11957e-05
1.1052e-05
1.08934e-05
1.08207e-05
1.08002e-05
1.08208e-05
1.0895e-05
1.09441e-05
1.09356e-05
1.09636e-05
1.10878e-05
1.13418e-05
1.16026e-05
1.1583e-05
1.13777e-05
1.12979e-05
1.16181e-05
1.19551e-05
1.18428e-05
1.18549e-05
1.22493e-05
1.25202e-05
1.215e-05
1.1694e-05
1.17026e-05
1.06133e-05
1.04677e-05
1.03358e-05
1.02802e-05
1.02709e-05
1.03041e-05
1.03807e-05
1.04168e-05
1.0418e-05
1.04562e-05
1.05915e-05
1.08599e-05
1.11087e-05
1.10684e-05
1.08539e-05
1.0796e-05
1.1139e-05
1.14306e-05
1.12969e-05
1.1325e-05
1.17268e-05
1.20362e-05
1.17033e-05
1.12129e-05
1.11828e-05
1.00696e-05
9.9272e-06
9.81832e-06
9.77773e-06
9.77835e-06
9.82334e-06
9.89879e-06
9.9206e-06
9.932e-06
9.98111e-06
1.01279e-05
1.04091e-05
1.06447e-05
1.05831e-05
1.03625e-05
1.03306e-05
1.06922e-05
1.09338e-05
1.07813e-05
1.08221e-05
1.12284e-05
1.15734e-05
1.12852e-05
1.07678e-05
1.06959e-05
9.56208e-06
9.42671e-06
9.33739e-06
9.30915e-06
9.31803e-06
9.37452e-06
9.44537e-06
9.45348e-06
9.47352e-06
9.53535e-06
9.69551e-06
9.98828e-06
1.02088e-05
1.0125e-05
9.90086e-06
9.89936e-06
1.02738e-05
1.04636e-05
1.02978e-05
1.03475e-05
1.07513e-05
1.11264e-05
1.08895e-05
1.03545e-05
1.02389e-05
9.08714e-06
8.96072e-06
8.88874e-06
8.8689e-06
8.88644e-06
8.95281e-06
9.0159e-06
9.0128e-06
9.0391e-06
9.11606e-06
9.29102e-06
9.59348e-06
9.79731e-06
9.69086e-06
9.46588e-06
9.49719e-06
9.8788e-06
1.00189e-05
9.84771e-06
9.90485e-06
1.0299e-05
1.06952e-05
1.05123e-05
9.96909e-06
9.80964e-06
8.64074e-06
8.52496e-06
8.46746e-06
8.45325e-06
8.47938e-06
8.55389e-06
8.60788e-06
8.59687e-06
8.62737e-06
8.7204e-06
8.91139e-06
9.22297e-06
9.40859e-06
9.2774e-06
9.05455e-06
9.1217e-06
9.50382e-06
9.59688e-06
9.42719e-06
9.49214e-06
9.8732e-06
1.02824e-05
1.01531e-05
9.61083e-06
9.40697e-06
8.21852e-06
8.1156e-06
8.06752e-06
8.05951e-06
8.09451e-06
8.17517e-06
8.21871e-06
8.20381e-06
8.23776e-06
8.34666e-06
8.55305e-06
8.87269e-06
9.03843e-06
8.88159e-06
8.66567e-06
8.76921e-06
9.14449e-06
9.19516e-06
9.03313e-06
9.10747e-06
9.47546e-06
9.89137e-06
9.81124e-06
9.27707e-06
9.03015e-06
7.81926e-06
7.72805e-06
7.68728e-06
7.68548e-06
7.73094e-06
7.81605e-06
7.84746e-06
7.83122e-06
7.8695e-06
7.99341e-06
8.21629e-06
8.54176e-06
8.68467e-06
8.50212e-06
8.29772e-06
8.43775e-06
8.79915e-06
8.81197e-06
8.6609e-06
8.74446e-06
9.1012e-06
9.52251e-06
9.48837e-06
8.96688e-06
8.67718e-06
7.44076e-06
7.3594e-06
7.32511e-06
7.33108e-06
7.38836e-06
7.4745e-06
7.4934e-06
7.47828e-06
7.52312e-06
7.65819e-06
7.89918e-06
8.22757e-06
8.34551e-06
8.14007e-06
7.95186e-06
8.12544e-06
8.46607e-06
8.44707e-06
8.3094e-06
8.40084e-06
8.74758e-06
9.17334e-06
9.18214e-06
8.67697e-06
8.3467e-06
7.08149e-06
7.00989e-06
6.98196e-06
6.99697e-06
7.06568e-06
7.14888e-06
7.15548e-06
7.14412e-06
7.197e-06
7.33942e-06
7.60066e-06
7.92961e-06
8.02034e-06
7.79466e-06
7.62633e-06
7.83053e-06
8.14534e-06
8.09917e-06
7.97524e-06
8.07314e-06
8.41083e-06
8.84126e-06
8.893e-06
8.40832e-06
8.03751e-06
6.74024e-06
6.67761e-06
6.65783e-06
6.68253e-06
6.76148e-06
6.83831e-06
6.83432e-06
6.8287e-06
6.88957e-06
7.03765e-06
7.31939e-06
7.6474e-06
7.70869e-06
7.4668e-06
7.32123e-06
7.55096e-06
7.83589e-06
7.76793e-06
7.65804e-06
7.76128e-06
8.08955e-06
8.52228e-06
8.61672e-06
8.15953e-06
7.75006e-06
6.41691e-06
6.36269e-06
6.35205e-06
6.38678e-06
6.47376e-06
6.54167e-06
6.52939e-06
6.53059e-06
6.59847e-06
6.75334e-06
7.05511e-06
7.37959e-06
7.4093e-06
7.15512e-06
7.03459e-06
7.28531e-06
7.5376e-06
7.45218e-06
7.35641e-06
7.46422e-06
7.78269e-06
8.21541e-06
8.35195e-06
7.93004e-06
7.48529e-06
6.11088e-06
6.06625e-06
6.06382e-06
6.10873e-06
6.20154e-06
6.25814e-06
6.23955e-06
6.24808e-06
6.32276e-06
6.48668e-06
6.80737e-06
7.12528e-06
7.12235e-06
6.85997e-06
6.76598e-06
7.03171e-06
7.24968e-06
7.15142e-06
7.06978e-06
7.18146e-06
7.48949e-06
7.91918e-06
8.09549e-06
7.7166e-06
7.24375e-06
5.82211e-06
5.78737e-06
5.79223e-06
5.84664e-06
5.94341e-06
5.98725e-06
5.96431e-06
5.98044e-06
6.06179e-06
6.23687e-06
6.57475e-06
6.88264e-06
6.84709e-06
6.57969e-06
6.51339e-06
6.7886e-06
6.97213e-06
6.86522e-06
6.79773e-06
6.91267e-06
7.20989e-06
7.63415e-06
7.84639e-06
7.51621e-06
7.02506e-06
5.55092e-06
5.52421e-06
5.53606e-06
5.6003e-06
5.698e-06
5.72774e-06
5.70271e-06
5.72711e-06
5.81593e-06
6.00365e-06
6.35564e-06
6.65063e-06
6.58291e-06
6.31403e-06
6.27585e-06
6.55467e-06
6.70469e-06
6.59312e-06
6.53904e-06
6.65621e-06
6.94281e-06
7.36012e-06
7.60427e-06
7.32633e-06
6.82722e-06
5.29536e-06
5.27572e-06
5.29473e-06
5.36874e-06
5.46382e-06
5.47966e-06
5.45534e-06
5.48779e-06
5.58414e-06
5.78549e-06
6.14842e-06
6.42779e-06
6.32928e-06
6.06224e-06
6.05209e-06
6.32923e-06
6.44779e-06
6.33516e-06
6.29375e-06
6.41221e-06
6.68807e-06
7.09658e-06
7.36822e-06
7.14457e-06
6.64819e-06
5.05433e-06
5.04114e-06
5.06754e-06
5.15052e-06
5.23969e-06
5.24232e-06
5.22127e-06
5.26197e-06
5.36627e-06
5.58187e-06
5.95245e-06
6.21282e-06
6.08582e-06
5.82432e-06
5.84124e-06
6.11192e-06
6.20136e-06
6.09e-06
6.05996e-06
6.17911e-06
6.44497e-06
6.84389e-06
7.13895e-06
6.97016e-06
6.48529e-06
4.82724e-06
4.81999e-06
4.85394e-06
4.94414e-06
5.02473e-06
5.01603e-06
5.00042e-06
5.04893e-06
5.16158e-06
5.39228e-06
5.76758e-06
6.00569e-06
5.85268e-06
5.59985e-06
5.64208e-06
5.90221e-06
5.96575e-06
5.85793e-06
5.83802e-06
5.95713e-06
6.2129e-06
6.60081e-06
6.91497e-06
6.80121e-06
6.33755e-06
4.61329e-06
4.61101e-06
4.65263e-06
4.74838e-06
4.81838e-06
4.80081e-06
4.7919e-06
4.84793e-06
4.96967e-06
5.21577e-06
5.59311e-06
5.80522e-06
5.62878e-06
5.38853e-06
5.45382e-06
5.69997e-06
5.7405e-06
5.63718e-06
5.62609e-06
5.74509e-06
5.99178e-06
6.36832e-06
6.69748e-06
6.63689e-06
6.20247e-06
4.4113e-06
4.41353e-06
4.46298e-06
4.56236e-06
4.62043e-06
4.59688e-06
4.59546e-06
4.65867e-06
4.79031e-06
5.05185e-06
5.42887e-06
5.61176e-06
5.41452e-06
5.18957e-06
5.27503e-06
5.50488e-06
5.52587e-06
5.42813e-06
5.42475e-06
5.54295e-06
5.78036e-06
6.14467e-06
6.48531e-06
6.47626e-06
6.07902e-06
4.22014e-06
4.22656e-06
4.28419e-06
4.38542e-06
4.43091e-06
4.40389e-06
4.41028e-06
4.48041e-06
4.62271e-06
4.8993e-06
5.273e-06
5.42405e-06
5.20968e-06
5.00298e-06
5.1054e-06
5.31695e-06
5.32101e-06
5.22911e-06
5.23248e-06
5.34991e-06
5.57895e-06
5.93107e-06
6.2795e-06
6.31861e-06
5.9652e-06
4.03871e-06
4.04973e-06
4.11578e-06
4.21671e-06
4.24962e-06
4.2214e-06
4.23576e-06
4.31256e-06
4.46616e-06
4.75762e-06
5.12504e-06
5.24297e-06
5.01482e-06
4.82792e-06
4.94393e-06
5.13605e-06
5.12609e-06
5.04053e-06
5.0496e-06
5.16568e-06
5.38631e-06
5.72592e-06
6.07941e-06
6.16368e-06
5.85969e-06
3.86647e-06
3.8828e-06
3.95729e-06
4.05564e-06
4.07646e-06
4.04906e-06
4.07113e-06
4.15452e-06
4.31996e-06
4.62546e-06
4.98335e-06
5.06784e-06
4.82977e-06
4.66398e-06
4.78992e-06
4.96184e-06
4.94024e-06
4.86107e-06
4.87511e-06
4.98981e-06
5.20276e-06
5.52997e-06
5.8853e-06
6.01081e-06
5.76129e-06
3.70289e-06
3.72552e-06
3.80791e-06
3.90127e-06
3.91121e-06
3.8865e-06
3.91568e-06
4.00587e-06
4.18377e-06
4.50198e-06
4.84735e-06
4.89904e-06
4.65465e-06
4.51038e-06
4.6426e-06
4.79414e-06
4.76352e-06
4.69085e-06
4.70891e-06
4.82173e-06
5.02722e-06
5.34235e-06
5.69734e-06
5.86002e-06
5.66832e-06
3.54797e-06
3.5775e-06
3.66679e-06
3.75343e-06
3.75386e-06
3.73301e-06
3.7688e-06
3.86613e-06
4.05711e-06
4.38638e-06
4.71597e-06
4.736e-06
4.48946e-06
4.36639e-06
4.50138e-06
4.63309e-06
4.59549e-06
4.52904e-06
4.55045e-06
4.6613e-06
4.85962e-06
5.1626e-06
5.51518e-06
5.71159e-06
5.58064e-06
3.40139e-06
3.43828e-06
3.53309e-06
3.61168e-06
3.60442e-06
3.58828e-06
3.63022e-06
3.73497e-06
3.93939e-06
4.27772e-06
4.58866e-06
4.57903e-06
4.33392e-06
4.23119e-06
4.36578e-06
4.4784e-06
4.43571e-06
4.37523e-06
4.39932e-06
4.50809e-06
4.69963e-06
4.99092e-06
5.33937e-06
5.56535e-06
5.49709e-06
3.26294e-06
3.30741e-06
3.40616e-06
3.47582e-06
3.46262e-06
3.45156e-06
3.49946e-06
3.61236e-06
3.83084e-06
4.17605e-06
4.4655e-06
4.42836e-06
4.18775e-06
4.10401e-06
4.23573e-06
4.33062e-06
4.28427e-06
4.22919e-06
4.25525e-06
4.36151e-06
4.54619e-06
4.8261e-06
5.16967e-06
5.42234e-06
5.41826e-06
3.13231e-06
3.18468e-06
3.28568e-06
3.34566e-06
3.32817e-06
3.32248e-06
3.37635e-06
3.49812e-06
3.73077e-06
4.08027e-06
4.34583e-06
4.28392e-06
4.05068e-06
3.98438e-06
4.11071e-06
4.18894e-06
4.14022e-06
4.09039e-06
4.11818e-06
4.22193e-06
4.40001e-06
4.66883e-06
5.00638e-06
5.28267e-06
5.34412e-06
3.00925e-06
3.06942e-06
3.17103e-06
3.22116e-06
3.201e-06
3.20085e-06
3.26087e-06
3.39264e-06
3.63951e-06
3.9903e-06
4.22978e-06
4.14571e-06
3.92184e-06
3.87131e-06
3.99077e-06
4.05381e-06
4.0036e-06
3.95841e-06
3.98719e-06
4.08796e-06
4.25947e-06
4.51795e-06
4.84931e-06
5.14731e-06
5.27591e-06
2.89358e-06
2.96137e-06
3.06184e-06
3.10214e-06
3.08083e-06
3.08667e-06
3.15344e-06
3.29621e-06
3.55658e-06
3.90513e-06
4.11719e-06
4.0148e-06
3.80292e-06
3.7663e-06
3.8771e-06
3.92611e-06
3.87524e-06
3.83433e-06
3.86375e-06
3.96146e-06
4.12679e-06
4.37557e-06
4.70066e-06
5.01924e-06
5.21637e-06
2.78653e-06
2.86111e-06
2.95896e-06
2.99041e-06
2.9694e-06
2.98122e-06
3.05499e-06
3.20947e-06
3.48255e-06
3.82482e-06
4.00583e-06
3.88569e-06
3.687e-06
3.66287e-06
3.76405e-06
3.80055e-06
3.75017e-06
3.71365e-06
3.74351e-06
3.83787e-06
3.99656e-06
4.23518e-06
4.55387e-06
4.89303e-06
5.16073e-06
2.67387e-06
2.75583e-06
2.85015e-06
2.87349e-06
2.85459e-06
2.8741e-06
2.95738e-06
3.1261e-06
3.41227e-06
3.74882e-06
3.90692e-06
3.77934e-06
3.59501e-06
3.58063e-06
3.67306e-06
3.69853e-06
3.64674e-06
3.61176e-06
3.64101e-06
3.73306e-06
3.88781e-06
4.12065e-06
4.43824e-06
4.80173e-06
5.14076e-06
2.68674e-06
2.76804e-06
2.85281e-06
2.86974e-06
2.85459e-06
2.87792e-06
2.96193e-06
3.12976e-06
3.40259e-06
3.69338e-06
3.79306e-06
3.65245e-06
3.49706e-06
3.49499e-06
3.56768e-06
3.57893e-06
3.5338e-06
3.50823e-06
3.53695e-06
3.61903e-06
3.75669e-06
3.96651e-06
4.26236e-06
4.62761e-06
5.01559e-06
1.85828e-06
1.97585e-06
2.07043e-06
2.07423e-06
2.05966e-06
2.10763e-06
2.24468e-06
2.50941e-06
2.92396e-06
3.35013e-06
3.50319e-06
3.33399e-06
3.14307e-06
3.1531e-06
3.26461e-06
3.29875e-06
3.25581e-06
3.23791e-06
3.29655e-06
3.42928e-06
3.63099e-06
3.91492e-06
4.30395e-06
4.80542e-06
5.38938e-06
6.5393e-06
6.55525e-06
6.55807e-06
6.55056e-06
6.54344e-06
6.54174e-06
6.54194e-06
6.5387e-06
6.52252e-06
6.47829e-06
6.39821e-06
6.29491e-06
6.18998e-06
6.08328e-06
5.94907e-06
5.76815e-06
5.55157e-06
5.32073e-06
5.0929e-06
4.89155e-06
4.75125e-06
4.70207e-06
4.74905e-06
4.86887e-06
5.02571e-06
2.34379e-07
2.53028e-06
2.69107e-06
2.85791e-06
3.00246e-06
3.1303e-06
3.24554e-06
3.35169e-06
3.45152e-06
3.54707e-06
3.64014e-06
3.73185e-06
3.82329e-06
3.9154e-06
4.00891e-06
4.1042e-06
4.20177e-06
4.30215e-06
4.40571e-06
4.51282e-06
4.62386e-06
4.73928e-06
4.8594e-06
4.98466e-06
5.11553e-06
5.25265e-06
5.39697e-06
5.54921e-06
5.70869e-06
5.87239e-06
6.03476e-06
6.18758e-06
6.32101e-06
6.43037e-06
6.51774e-06
6.58043e-06
6.61839e-06
6.64048e-06
6.65673e-06
6.67961e-06
6.70826e-06
6.73611e-06
6.75511e-06
6.75948e-06
6.74608e-06
6.71415e-06
6.66556e-06
6.61137e-06
6.56707e-06
6.53452e-06
6.50993e-06
6.49526e-06
6.48602e-06
6.47996e-06
6.47571e-06
6.4736e-06
6.4723e-06
6.47222e-06
6.47313e-06
6.47468e-06
6.47642e-06
6.47786e-06
6.47938e-06
6.4808e-06
6.48235e-06
6.48452e-06
6.48842e-06
6.49646e-06
6.50883e-06
6.52336e-06
6.53769e-06
6.55428e-06
6.57576e-06
6.6022e-06
6.63456e-06
6.67806e-06
6.73509e-06
6.80125e-06
6.86819e-06
6.90901e-06
6.88002e-06
6.78266e-06
6.68386e-06
6.63172e-06
6.61679e-06
6.61176e-06
6.60317e-06
6.58555e-06
6.54428e-06
6.44828e-06
6.26883e-06
6.01165e-06
5.72835e-06
5.49411e-06
5.37181e-06
5.38076e-06
5.47055e-06
5.46951e-06
5.24442e-06
4.31768e-06
2.45599e-06
2.57496e-06
2.68726e-06
2.79047e-06
2.88204e-06
2.96233e-06
3.03272e-06
3.09461e-06
3.14917e-06
3.19746e-06
3.24004e-06
3.27771e-06
3.3109e-06
3.33995e-06
3.36495e-06
3.38609e-06
3.40351e-06
3.41712e-06
3.42696e-06
3.43299e-06
3.43515e-06
3.43345e-06
3.42774e-06
3.41819e-06
3.40466e-06
3.38731e-06
3.36608e-06
3.34124e-06
3.31374e-06
3.28508e-06
3.25699e-06
3.23104e-06
3.20781e-06
3.18728e-06
3.17065e-06
3.1579e-06
3.14584e-06
3.1259e-06
3.08832e-06
3.03237e-06
2.96284e-06
2.88349e-06
2.79634e-06
2.70058e-06
2.60275e-06
2.51216e-06
2.43446e-06
2.36907e-06
2.31289e-06
2.26233e-06
2.21219e-06
2.15539e-06
2.08812e-06
2.01872e-06
1.94852e-06
1.87881e-06
1.81487e-06
1.76007e-06
1.71529e-06
1.67931e-06
1.65004e-06
1.6266e-06
1.60947e-06
1.59668e-06
1.58412e-06
1.57244e-06
1.56632e-06
1.57235e-06
1.59388e-06
1.6221e-06
1.64062e-06
1.65384e-06
1.69847e-06
1.77404e-06
1.87715e-06
2.08936e-06
2.50459e-06
3.12761e-06
3.7883e-06
4.0945e-06
3.79467e-06
3.20653e-06
2.82592e-06
2.80305e-06
3.01465e-06
3.32232e-06
3.68346e-06
4.10545e-06
4.5447e-06
4.88353e-06
5.05145e-06
5.14159e-06
5.34134e-06
5.73312e-06
6.17957e-06
6.44836e-06
6.37522e-06
5.96899e-06
3.38203e-06
2.52234e-06
2.58649e-06
2.66649e-06
2.74257e-06
2.8109e-06
2.87047e-06
2.92163e-06
2.96502e-06
3.00144e-06
3.03152e-06
3.05579e-06
3.07494e-06
3.08931e-06
3.09928e-06
3.10516e-06
3.1073e-06
3.10608e-06
3.1016e-06
3.09428e-06
3.08428e-06
3.07193e-06
3.05757e-06
3.04147e-06
3.02406e-06
3.00569e-06
2.98684e-06
2.96796e-06
2.94951e-06
2.93189e-06
2.91544e-06
2.90042e-06
2.88717e-06
2.87622e-06
2.86814e-06
2.86341e-06
2.86262e-06
2.86694e-06
2.87699e-06
2.88925e-06
2.89428e-06
2.88627e-06
2.8676e-06
2.84361e-06
2.81553e-06
2.77548e-06
2.7243e-06
2.6738e-06
2.63222e-06
2.60113e-06
2.57932e-06
2.56607e-06
2.55473e-06
2.53424e-06
2.51163e-06
2.48725e-06
2.45837e-06
2.43001e-06
2.40721e-06
2.39128e-06
2.38343e-06
2.38186e-06
2.38365e-06
2.38928e-06
2.39787e-06
2.40602e-06
2.41461e-06
2.42501e-06
2.43899e-06
2.46081e-06
2.49354e-06
2.52686e-06
2.54173e-06
2.56723e-06
2.62795e-06
2.69998e-06
2.81399e-06
3.04986e-06
3.42056e-06
3.83137e-06
4.08671e-06
4.01165e-06
3.69079e-06
3.41731e-06
3.3744e-06
3.53574e-06
3.7987e-06
4.10146e-06
4.43126e-06
4.75428e-06
4.97953e-06
5.04845e-06
5.04432e-06
5.13939e-06
5.40182e-06
5.69593e-06
5.81405e-06
5.6832e-06
5.38424e-06
3.25597e-06
2.5962e-06
2.62634e-06
2.68042e-06
2.7339e-06
2.78219e-06
2.82387e-06
2.85874e-06
2.88701e-06
2.90918e-06
2.92567e-06
2.93696e-06
2.94358e-06
2.94596e-06
2.94452e-06
2.9397e-06
2.93189e-06
2.92156e-06
2.90892e-06
2.89452e-06
2.8786e-06
2.86156e-06
2.84381e-06
2.82585e-06
2.80812e-06
2.79096e-06
2.77468e-06
2.75953e-06
2.74581e-06
2.73393e-06
2.72427e-06
2.7172e-06
2.71321e-06
2.71274e-06
2.71602e-06
2.72325e-06
2.73461e-06
2.75037e-06
2.7711e-06
2.79758e-06
2.82638e-06
2.84198e-06
2.84321e-06
2.83114e-06
2.81459e-06
2.79155e-06
2.75367e-06
2.70799e-06
2.66638e-06
2.63596e-06
2.61442e-06
2.60151e-06
2.59508e-06
2.5797e-06
2.55624e-06
2.53218e-06
2.50234e-06
2.47053e-06
2.44288e-06
2.42109e-06
2.40759e-06
2.40159e-06
2.39973e-06
2.4018e-06
2.40595e-06
2.40935e-06
2.4134e-06
2.41976e-06
2.43059e-06
2.44897e-06
2.47845e-06
2.51381e-06
2.53161e-06
2.55191e-06
2.61057e-06
2.68722e-06
2.79993e-06
3.03509e-06
3.43317e-06
3.90991e-06
4.24489e-06
4.20415e-06
3.84431e-06
3.50784e-06
3.43694e-06
3.61528e-06
3.91381e-06
4.24687e-06
4.59987e-06
4.94586e-06
5.19169e-06
5.27545e-06
5.29786e-06
5.45195e-06
5.77266e-06
6.0335e-06
6.00794e-06
5.74959e-06
5.44233e-06
3.17278e-06
2.68907e-06
2.69427e-06
2.72926e-06
2.76566e-06
2.79834e-06
2.8259e-06
2.84803e-06
2.86483e-06
2.8766e-06
2.88371e-06
2.88662e-06
2.88576e-06
2.88168e-06
2.87502e-06
2.8661e-06
2.8552e-06
2.84287e-06
2.82931e-06
2.81497e-06
2.80012e-06
2.78515e-06
2.77046e-06
2.7567e-06
2.74451e-06
2.73407e-06
2.72514e-06
2.71773e-06
2.71207e-06
2.7084e-06
2.70697e-06
2.70811e-06
2.71228e-06
2.7199e-06
2.73118e-06
2.74611e-06
2.7648e-06
2.78748e-06
2.81444e-06
2.84621e-06
2.88347e-06
2.91732e-06
2.93377e-06
2.93583e-06
2.92603e-06
2.91241e-06
2.88595e-06
2.84513e-06
2.80278e-06
2.76833e-06
2.74491e-06
2.72954e-06
2.72293e-06
2.71211e-06
2.69126e-06
2.66826e-06
2.63887e-06
2.60603e-06
2.57622e-06
2.55161e-06
2.53464e-06
2.52606e-06
2.52342e-06
2.52403e-06
2.52603e-06
2.52895e-06
2.53308e-06
2.5393e-06
2.54927e-06
2.56496e-06
2.59101e-06
2.62843e-06
2.65147e-06
2.66649e-06
2.71681e-06
2.79188e-06
2.89198e-06
3.09413e-06
3.46258e-06