/*--------------------------------*- C++ -*----------------------------------*\
  =========                 |
  \\      /  F ield         | OpenFOAM: The Open Source CFD Toolbox
   \\    /   O peration     | Website:  https://openfoam.org
    \\  /    A nd           | Version:  9
     \\/     M anipulation  |
\*---------------------------------------------------------------------------*/
FoamFile
{
    format      ascii;
    class       volScalarField;
    location    "750";
    object      nut;
}
// * * * * * * * * * * * * * * * * * * * * * * * * * * * * * * * * * * * * * //

dimensions      [0 2 -1 0 0 0 0];

internalField   nonuniform List<scalar> 
13354
(
1.0778e-06
1.08085e-06
1.14362e-06
1.21719e-06
1.25574e-06
1.32197e-06
1.46241e-06
1.70028e-06
2.02442e-06
2.18943e-06
1.84887e-06
1.28528e-06
4.52041e-07
1.10378e-06
1.08625e-06
1.12249e-06
1.20596e-06
1.27106e-06
1.34274e-06
1.47046e-06
1.69374e-06
2.02372e-06
2.26291e-06
1.97773e-06
1.41664e-06
1.02553e-06
1.13248e-06
1.10656e-06
1.12142e-06
1.19151e-06
1.25329e-06
1.32479e-06
1.45354e-06
1.67228e-06
2.03148e-06
2.48313e-06
2.58259e-06
2.18602e-06
1.71118e-06
1.16144e-06
1.13265e-06
1.13289e-06
1.18393e-06
1.2308e-06
1.29362e-06
1.41404e-06
1.60878e-06
1.97063e-06
2.65327e-06
3.33753e-06
3.31212e-06
2.5994e-06
1.18271e-06
1.1536e-06
1.15029e-06
1.17981e-06
1.21306e-06
1.25527e-06
1.35043e-06
1.50663e-06
1.83e-06
2.61048e-06
3.70168e-06
4.0775e-06
3.21195e-06
1.19908e-06
1.17534e-06
1.16504e-06
1.18527e-06
1.20693e-06
1.22294e-06
1.2808e-06
1.39312e-06
1.65211e-06
2.34566e-06
3.48563e-06
4.10324e-06
3.34531e-06
1.21178e-06
1.19698e-06
1.17781e-06
1.18856e-06
1.20937e-06
1.21023e-06
1.23125e-06
1.2939e-06
1.47223e-06
1.9765e-06
2.89067e-06
3.52199e-06
3.05031e-06
1.21736e-06
1.21354e-06
1.18743e-06
1.19031e-06
1.2057e-06
1.20732e-06
1.20262e-06
1.22016e-06
1.31569e-06
1.62518e-06
2.22875e-06
2.72999e-06
2.54129e-06
1.20942e-06
1.21818e-06
1.19465e-06
1.18991e-06
1.20112e-06
1.20006e-06
1.18466e-06
1.1728e-06
1.20498e-06
1.36491e-06
1.70726e-06
2.04291e-06
2.03302e-06
1.192e-06
1.21402e-06
1.19577e-06
1.18965e-06
1.19629e-06
1.19044e-06
1.16988e-06
1.14748e-06
1.14627e-06
1.21316e-06
1.38452e-06
1.58217e-06
1.63647e-06
1.17276e-06
1.20327e-06
1.19067e-06
1.18553e-06
1.19198e-06
1.18208e-06
1.15959e-06
1.13606e-06
1.12139e-06
1.14232e-06
1.2199e-06
1.32548e-06
1.37564e-06
1.15439e-06
1.18591e-06
1.17828e-06
1.17605e-06
1.18297e-06
1.17441e-06
1.15283e-06
1.13282e-06
1.11534e-06
1.11511e-06
1.14861e-06
1.2014e-06
1.23005e-06
1.13598e-06
1.16319e-06
1.16112e-06
1.16054e-06
1.16651e-06
1.16189e-06
1.14607e-06
1.1321e-06
1.11811e-06
1.10931e-06
1.12001e-06
1.14534e-06
1.16121e-06
1.11796e-06
1.13844e-06
1.13922e-06
1.14036e-06
1.14464e-06
1.14542e-06
1.13581e-06
1.12793e-06
1.12159e-06
1.11234e-06
1.11171e-06
1.12404e-06
1.13498e-06
1.09933e-06
1.11518e-06
1.11715e-06
1.12017e-06
1.12327e-06
1.12753e-06
1.12219e-06
1.11698e-06
1.11592e-06
1.11311e-06
1.11043e-06
1.11635e-06
1.12689e-06
1.08488e-06
1.09657e-06
1.09902e-06
1.10277e-06
1.10547e-06
1.11087e-06
1.10728e-06
1.10212e-06
1.10209e-06
1.10317e-06
1.10509e-06
1.1127e-06
1.12345e-06
1.073e-06
1.08257e-06
1.08474e-06
1.08746e-06
1.08932e-06
1.09504e-06
1.09319e-06
1.08667e-06
1.08538e-06
1.08743e-06
1.09313e-06
1.10394e-06
1.11595e-06
1.06061e-06
1.06834e-06
1.07042e-06
1.07319e-06
1.0758e-06
1.08187e-06
1.08157e-06
1.07383e-06
1.07125e-06
1.07233e-06
1.07764e-06
1.0903e-06
1.10249e-06
1.05019e-06
1.05693e-06
1.05983e-06
1.06307e-06
1.06633e-06
1.07126e-06
1.07242e-06
1.06457e-06
1.06108e-06
1.06072e-06
1.06437e-06
1.07684e-06
1.08637e-06
1.04094e-06
1.04742e-06
1.05182e-06
1.05539e-06
1.0586e-06
1.06212e-06
1.06496e-06
1.05838e-06
1.05367e-06
1.05232e-06
1.05492e-06
1.06547e-06
1.07107e-06
1.03405e-06
1.03987e-06
1.04495e-06
1.04887e-06
1.05211e-06
1.05627e-06
1.05938e-06
1.05412e-06
1.04856e-06
1.04604e-06
1.04794e-06
1.05593e-06
1.05845e-06
1.02897e-06
1.03381e-06
1.03973e-06
1.04442e-06
1.04696e-06
1.05107e-06
1.05448e-06
1.04985e-06
1.04468e-06
1.04119e-06
1.04194e-06
1.0473e-06
1.04825e-06
1.02493e-06
1.02869e-06
1.03516e-06
1.03999e-06
1.0429e-06
1.04477e-06
1.05029e-06
1.04613e-06
1.04005e-06
1.03642e-06
1.0361e-06
1.03991e-06
1.04073e-06
1.02169e-06
1.0251e-06
1.03175e-06
1.03621e-06
1.03909e-06
1.03926e-06
1.04581e-06
1.04323e-06
1.03486e-06
1.0306e-06
1.02936e-06
1.03176e-06
1.03308e-06
1.01909e-06
1.02254e-06
1.02876e-06
1.03286e-06
1.03519e-06
1.03461e-06
1.04135e-06
1.03932e-06
1.03035e-06
1.02423e-06
1.02219e-06
1.02355e-06
1.02562e-06
1.0171e-06
1.02086e-06
1.02625e-06
1.02938e-06
1.03161e-06
1.03044e-06
1.03734e-06
1.03508e-06
1.02546e-06
1.01828e-06
1.01582e-06
1.01608e-06
1.01863e-06
1.01585e-06
1.01974e-06
1.024e-06
1.02572e-06
1.02801e-06
1.02684e-06
1.03353e-06
1.03144e-06
1.02055e-06
1.01307e-06
1.0104e-06
1.00896e-06
1.01188e-06
1.01502e-06
1.01897e-06
1.0223e-06
1.02272e-06
1.02463e-06
1.02366e-06
1.03036e-06
1.02849e-06
1.01655e-06
1.00866e-06
1.00556e-06
1.00319e-06
1.00609e-06
1.01461e-06
1.01848e-06
1.02094e-06
1.02013e-06
1.02168e-06
1.02082e-06
1.02763e-06
1.02643e-06
1.01319e-06
1.00515e-06
1.00185e-06
9.9884e-07
1.00183e-06
1.01428e-06
1.01791e-06
1.01987e-06
1.01777e-06
1.0186e-06
1.01789e-06
1.02504e-06
1.02491e-06
1.01085e-06
1.00229e-06
9.98981e-07
9.96011e-07
9.98894e-07
1.01398e-06
1.01719e-06
1.01882e-06
1.0158e-06
1.01561e-06
1.01508e-06
1.02288e-06
1.02347e-06
1.0091e-06
1.00016e-06
9.96831e-07
9.94204e-07
9.96832e-07
1.0136e-06
1.01676e-06
1.01811e-06
1.01422e-06
1.01321e-06
1.01263e-06
1.02101e-06
1.02216e-06
1.00767e-06
9.98177e-07
9.94117e-07
9.92704e-07
9.95514e-07
1.01335e-06
1.01688e-06
1.01805e-06
1.01327e-06
1.01143e-06
1.01091e-06
1.01951e-06
1.02109e-06
1.00671e-06
9.96307e-07
9.91919e-07
9.91003e-07
9.94765e-07
1.01309e-06
1.01749e-06
1.01869e-06
1.0129e-06
1.01035e-06
1.00932e-06
1.01813e-06
1.02041e-06
1.00638e-06
9.9498e-07
9.90123e-07
9.89077e-07
9.93622e-07
1.01296e-06
1.01827e-06
1.01944e-06
1.01272e-06
1.00925e-06
1.00761e-06
1.0169e-06
1.01976e-06
1.00636e-06
9.94905e-07
9.89514e-07
9.87725e-07
9.92029e-07
1.01035e-06
1.01291e-06
1.01892e-06
1.01947e-06
1.01211e-06
1.00773e-06
1.00604e-06
1.01571e-06
1.01903e-06
1.00627e-06
9.95653e-07
9.89797e-07
9.86862e-07
9.90058e-07
9.96359e-07
1.00383e-06
1.00295e-06
9.9617e-07
9.93791e-07
9.95973e-07
9.97544e-07
1.00338e-06
1.00968e-06
1.01286e-06
1.01895e-06
1.01839e-06
1.01088e-06
1.00581e-06
1.00457e-06
1.01498e-06
1.01832e-06
1.00599e-06
9.95992e-07
9.9044e-07
9.86288e-07
9.88163e-07
9.97799e-07
1.00437e-06
1.00124e-06
9.94159e-07
9.93493e-07
9.96468e-07
9.97263e-07
1.00305e-06
1.00913e-06
1.01247e-06
1.01797e-06
1.01641e-06
1.00924e-06
1.0038e-06
1.00319e-06
1.01438e-06
1.01749e-06
1.00536e-06
9.95386e-07
9.90438e-07
9.85589e-07
9.86682e-07
9.98926e-07
1.00444e-06
9.99578e-07
9.91926e-07
9.92408e-07
9.96167e-07
9.96738e-07
1.00269e-06
1.00837e-06
1.01112e-06
1.01606e-06
1.01378e-06
1.00757e-06
1.00213e-06
1.00182e-06
1.01342e-06
1.0163e-06
1.00431e-06
9.93994e-07
9.89444e-07
9.84809e-07
9.85751e-07
9.99882e-07
1.00399e-06
9.97605e-07
9.89509e-07
9.9056e-07
9.95071e-07
9.95781e-07
1.00216e-06
1.00674e-06
1.00861e-06
1.01308e-06
1.0106e-06
1.00568e-06
1.0007e-06
1.00048e-06
1.012e-06
1.01467e-06
1.00299e-06
9.92429e-07
9.87963e-07
9.84002e-07
9.85075e-07
1.0011e-06
1.00298e-06
9.95287e-07
9.86999e-07
9.88323e-07
9.93279e-07
9.94576e-07
1.00102e-06
1.00388e-06
1.00493e-06
1.00914e-06
1.00694e-06
1.00383e-06
9.99061e-07
9.99034e-07
1.01054e-06
1.01244e-06
1.00116e-06
9.90475e-07
9.86005e-07
9.82762e-07
9.84014e-07
1.00162e-06
1.00167e-06
9.9279e-07
9.84871e-07
9.86338e-07
9.91208e-07
9.93354e-07
9.99118e-07
1e-06
1.00043e-06
1.00457e-06
1.00263e-06
1.00121e-06
9.96611e-07
9.9706e-07
1.00872e-06
1.0095e-06
9.98414e-07
9.87473e-07
9.83224e-07
9.80946e-07
9.82171e-07
9.94821e-07
1.00189e-06
1.00034e-06
9.90593e-07
9.83663e-07
9.85363e-07
9.89523e-07
9.92034e-07
9.9651e-07
9.95585e-07
9.95764e-07
9.99805e-07
9.97743e-07
9.97196e-07
9.93084e-07
9.94337e-07
1.00607e-06
1.00583e-06
9.94756e-07
9.83416e-07
9.79603e-07
9.78171e-07
9.79288e-07
9.95262e-07
1.00227e-06
9.99071e-07
9.89014e-07
9.83596e-07
9.85661e-07
9.88532e-07
9.9069e-07
9.93373e-07
9.91068e-07
9.91404e-07
9.9528e-07
9.92814e-07
9.92507e-07
9.88741e-07
9.90963e-07
1.00279e-06
1.00173e-06
9.90669e-07
9.78949e-07
9.75345e-07
9.74571e-07
9.75512e-07
9.95747e-07
1.00269e-06
9.97802e-07
9.88005e-07
9.84461e-07
9.86712e-07
9.87997e-07
9.89384e-07
9.90066e-07
9.86857e-07
9.8765e-07
9.91309e-07
9.88247e-07
9.87835e-07
9.83932e-07
9.86975e-07
9.99048e-07
9.97503e-07
9.87153e-07
9.74737e-07
9.70619e-07
9.70359e-07
9.71101e-07
9.96348e-07
1.0029e-06
9.97282e-07
9.87595e-07
9.85744e-07
9.87682e-07
9.87366e-07
9.87822e-07
9.86915e-07
9.83242e-07
9.84805e-07
9.882e-07
9.84211e-07
9.83221e-07
9.78895e-07
9.82475e-07
9.94842e-07
9.92973e-07
9.83619e-07
9.70682e-07
9.65528e-07
9.65781e-07
9.66498e-07
9.97387e-07
1.0029e-06
9.95779e-07
9.87797e-07
9.86961e-07
9.87987e-07
9.86105e-07
9.86129e-07
9.83953e-07
9.8028e-07
9.82678e-07
9.8589e-07
9.80787e-07
9.786e-07
9.73753e-07
9.77479e-07
9.90123e-07
9.88038e-07
9.7965e-07
9.66435e-07
9.59931e-07
9.60892e-07
9.62032e-07
9.98693e-07
1.00292e-06
9.95273e-07
9.88326e-07
9.87705e-07
9.87445e-07
9.8414e-07
9.83123e-07
9.80837e-07
9.77748e-07
9.80854e-07
9.83759e-07
9.77539e-07
9.73895e-07
9.68571e-07
9.72122e-07
9.84882e-07
9.82844e-07
9.75679e-07
9.62202e-07
9.54098e-07
9.55947e-07
9.57873e-07
1.00031e-06
1.00308e-06
9.95115e-07
9.88731e-07
9.87662e-07
9.86119e-07
9.81817e-07
9.80172e-07
9.7798e-07
9.75329e-07
9.78792e-07
9.81107e-07
9.74078e-07
9.69147e-07
9.63198e-07
9.66819e-07
9.79434e-07
9.77613e-07
9.71987e-07
9.58435e-07
9.48748e-07
9.51466e-07
9.54218e-07
1.0022e-06
1.00329e-06
9.9496e-07
9.88535e-07
9.86651e-07
9.83979e-07
9.79402e-07
9.7739e-07
9.74921e-07
9.72379e-07
9.75889e-07
9.77677e-07
9.70271e-07
9.6445e-07
9.57786e-07
9.62066e-07
9.7417e-07
9.7244e-07
9.68687e-07
9.55511e-07
9.44367e-07
9.47587e-07
9.50985e-07
1.00424e-06
1.00328e-06
9.94285e-07
9.8743e-07
9.84623e-07
9.81143e-07
9.76857e-07
9.74407e-07
9.71989e-07
9.68591e-07
9.72087e-07
9.73696e-07
9.66244e-07
9.59827e-07
9.52688e-07
9.58358e-07
9.69649e-07
9.67517e-07
9.65849e-07
9.53597e-07
9.41143e-07
9.4426e-07
9.47975e-07
1.00615e-06
1.0026e-06
9.92598e-07
9.85229e-07
9.81536e-07
9.77791e-07
9.73961e-07
9.7078e-07
9.67311e-07
9.64214e-07
9.68102e-07
9.69694e-07
9.62351e-07
9.55496e-07
9.48459e-07
9.5599e-07
9.66424e-07
9.63851e-07
9.63745e-07
9.5269e-07
9.38939e-07
9.41437e-07
9.45336e-07
1.00731e-06
1.00057e-06
9.89532e-07
9.81882e-07
9.77573e-07
9.73782e-07
9.70385e-07
9.66157e-07
9.62064e-07
9.59642e-07
9.6443e-07
9.66129e-07
9.58976e-07
9.51832e-07
9.4553e-07
9.54897e-07
9.64515e-07
9.60797e-07
9.62502e-07
9.52803e-07
9.37604e-07
9.39004e-07
9.43185e-07
1.00674e-06
9.96743e-07
9.85045e-07
9.77478e-07
9.7288e-07
9.69197e-07
9.65914e-07
9.61159e-07
9.57335e-07
9.55436e-07
9.61392e-07
9.6338e-07
9.56449e-07
9.49064e-07
9.43905e-07
9.54878e-07
9.63633e-07
9.58563e-07
9.62107e-07
9.53865e-07
9.37089e-07
9.3699e-07
9.41664e-07
1.0038e-06
9.91158e-07
9.79253e-07
9.72162e-07
9.6747e-07
9.63954e-07
9.60687e-07
9.55716e-07
9.52687e-07
9.52011e-07
9.59404e-07
9.61728e-07
9.54944e-07
9.47248e-07
9.43296e-07
9.55635e-07
9.63355e-07
9.57336e-07
9.62554e-07
9.55816e-07
9.37409e-07
9.3554e-07
9.40895e-07
9.98385e-07
9.83972e-07
9.72511e-07
9.65969e-07
9.61355e-07
9.58194e-07
9.55016e-07
9.50145e-07
9.48293e-07
9.49382e-07
9.58364e-07
9.61073e-07
9.54309e-07
9.46219e-07
9.43464e-07
9.57051e-07
9.63425e-07
9.56839e-07
9.63757e-07
9.58637e-07
9.38665e-07
9.34887e-07
9.4087e-07
9.9088e-07
9.75629e-07
9.65065e-07
9.59166e-07
9.5525e-07
9.52437e-07
9.49408e-07
9.44898e-07
9.44321e-07
9.47127e-07
9.57709e-07
9.60834e-07
9.53993e-07
9.45535e-07
9.44047e-07
9.58973e-07
9.63679e-07
9.56897e-07
9.65688e-07
9.62238e-07
9.40795e-07
9.34989e-07
9.4136e-07
9.81878e-07
9.66721e-07
9.57307e-07
9.52245e-07
9.48973e-07
9.46853e-07
9.43895e-07
9.3991e-07
9.40494e-07
9.448e-07
9.56781e-07
9.6014e-07
9.53133e-07
9.44462e-07
9.44546e-07
9.60851e-07
9.63667e-07
9.57095e-07
9.68002e-07
9.66482e-07
9.43715e-07
9.35639e-07
9.42048e-07
9.85136e-07
9.72179e-07
9.57873e-07
9.49636e-07
9.454e-07
9.4256e-07
9.41576e-07
9.3856e-07
9.35467e-07
9.367e-07
9.4222e-07
9.55215e-07
9.58427e-07
9.51018e-07
9.42316e-07
9.44343e-07
9.61929e-07
9.62807e-07
9.56761e-07
9.69858e-07
9.70709e-07
9.47013e-07
9.36584e-07
9.42827e-07
9.76544e-07
9.62484e-07
9.49414e-07
9.42398e-07
9.38673e-07
9.36656e-07
9.36732e-07
9.33658e-07
9.3103e-07
9.32975e-07
9.39489e-07
9.52946e-07
9.55633e-07
9.47478e-07
9.38827e-07
9.43183e-07
9.61822e-07
9.60692e-07
9.55361e-07
9.70764e-07
9.74273e-07
9.50063e-07
9.37298e-07
9.43381e-07
9.72407e-07
9.67664e-07
9.53176e-07
9.41559e-07
9.35561e-07
9.32406e-07
9.31566e-07
9.32372e-07
9.29189e-07
9.268e-07
9.29416e-07
9.36785e-07
9.50423e-07
9.52165e-07
9.42876e-07
9.3427e-07
9.41226e-07
9.60655e-07
9.57487e-07
9.52915e-07
9.70581e-07
9.76683e-07
9.52323e-07
9.37233e-07
9.43244e-07
9.65195e-07
9.58743e-07
9.44401e-07
9.34245e-07
9.29205e-07
9.26622e-07
9.26917e-07
9.28296e-07
9.25296e-07
9.22955e-07
9.25996e-07
9.34399e-07
9.48134e-07
9.48705e-07
9.37851e-07
9.2924e-07
9.38918e-07
9.58808e-07
9.53681e-07
9.49834e-07
9.69268e-07
9.78065e-07
9.53804e-07
9.36093e-07
9.41944e-07
9.57974e-07
9.49973e-07
9.3632e-07
9.27468e-07
9.23248e-07
9.21165e-07
9.2262e-07
9.2474e-07
9.21509e-07
9.19419e-07
9.22995e-07
9.32662e-07
9.46459e-07
9.45688e-07
9.33064e-07
9.24482e-07
9.36815e-07
9.56697e-07
9.49861e-07
9.46843e-07
9.6798e-07
9.79167e-07
9.5511e-07
9.34266e-07
9.39452e-07
9.51061e-07
9.41854e-07
9.29101e-07
9.21428e-07
9.17794e-07
9.16344e-07
9.18804e-07
9.21e-07
9.17885e-07
9.16295e-07
9.20573e-07
9.31727e-07
9.45518e-07
9.43329e-07
9.2898e-07
9.20598e-07
9.35464e-07
9.54731e-07
9.46414e-07
9.44311e-07
9.66914e-07
9.80702e-07
9.57015e-07
9.32586e-07
9.36395e-07
9.4472e-07
9.34722e-07
9.22884e-07
9.16296e-07
9.13151e-07
9.12621e-07
9.15677e-07
9.17336e-07
9.14713e-07
9.13766e-07
9.18873e-07
9.31624e-07
9.45332e-07
9.41665e-07
9.25812e-07
9.17979e-07
9.35204e-07
9.53089e-07
9.43228e-07
9.42152e-07
9.66179e-07
9.83031e-07
9.60086e-07
9.31858e-07
9.33549e-07
9.39127e-07
9.28392e-07
9.17704e-07
9.1203e-07
9.09597e-07
9.09954e-07
9.13338e-07
9.1415e-07
9.12167e-07
9.11872e-07
9.17937e-07
9.32309e-07
9.45886e-07
9.40675e-07
9.23485e-07
9.1664e-07
9.36109e-07
9.51865e-07
9.40194e-07
9.40161e-07
9.65794e-07
9.85957e-07
9.64378e-07
9.32482e-07
9.31486e-07
9.34286e-07
9.23082e-07
9.13512e-07
9.08759e-07
9.06987e-07
9.08239e-07
9.11746e-07
9.1151e-07
9.10223e-07
9.10717e-07
9.1786e-07
9.33866e-07
9.4718e-07
9.40252e-07
9.21893e-07
9.165e-07
9.38049e-07
9.51049e-07
9.37522e-07
9.38379e-07
9.65518e-07
9.89056e-07
9.69591e-07
9.34354e-07
9.30241e-07
9.30156e-07
9.18823e-07
9.10302e-07
9.06368e-07
9.05166e-07
9.07378e-07
9.10721e-07
9.09351e-07
9.08682e-07
9.10228e-07
9.18688e-07
9.36322e-07
9.49185e-07
9.4036e-07
9.20913e-07
9.17438e-07
9.40876e-07
9.50741e-07
9.35622e-07
9.37097e-07
9.65208e-07
9.91955e-07
9.75375e-07
9.37307e-07
9.29738e-07
9.26647e-07
9.15417e-07
9.07947e-07
9.04535e-07
9.0397e-07
9.07107e-07
9.10039e-07
9.07615e-07
9.07343e-07
9.10302e-07
9.20349e-07
9.39588e-07
9.51794e-07
9.40856e-07
9.20473e-07
9.19347e-07
9.44356e-07
9.50907e-07
9.34702e-07
9.36722e-07
9.65224e-07
9.94686e-07
9.81491e-07
9.41184e-07
9.2989e-07
9.23627e-07
9.12683e-07
9.06127e-07
9.03019e-07
9.03147e-07
9.07163e-07
9.0954e-07
9.06277e-07
9.06229e-07
9.10801e-07
9.22632e-07
9.4354e-07
9.54916e-07
9.41532e-07
9.20407e-07
9.22067e-07
9.48251e-07
9.51464e-07
9.34699e-07
9.37377e-07
9.65941e-07
9.97551e-07
9.87953e-07
9.46055e-07
9.30754e-07
9.20832e-07
9.10483e-07
9.04425e-07
9.017e-07
9.0262e-07
9.07471e-07
9.09086e-07
9.05262e-07
9.05375e-07
9.11715e-07
9.25463e-07
9.48081e-07
9.58336e-07
9.42156e-07
9.20677e-07
9.25485e-07
9.52301e-07
9.52249e-07
9.35427e-07
9.3896e-07
9.67562e-07
1.00092e-06
9.9484e-07
9.51899e-07
9.32384e-07
9.18237e-07
9.08402e-07
9.02703e-07
9.00456e-07
9.02426e-07
9.08019e-07
9.08639e-07
9.04461e-07
9.04868e-07
9.13007e-07
9.28867e-07
9.53088e-07
9.61878e-07
9.42719e-07
9.21318e-07
9.29531e-07
9.56363e-07
9.53188e-07
9.36666e-07
9.41155e-07
9.6996e-07
1.00499e-06
1.00234e-06
9.58707e-07
9.3473e-07
9.15759e-07
9.0631e-07
9.00953e-07
8.99402e-07
9.02687e-07
9.08724e-07
9.08172e-07
9.0386e-07
9.04868e-07
9.14522e-07
9.32893e-07
9.58514e-07
9.6544e-07
9.43304e-07
9.2247e-07
9.34165e-07
9.60377e-07
9.54282e-07
9.38281e-07
9.4371e-07
9.72851e-07
1.00969e-06
1.01054e-06
9.66446e-07
9.37788e-07
9.13282e-07
9.04319e-07
8.99386e-07
8.98752e-07
9.03426e-07
9.09542e-07
9.07721e-07
9.03553e-07
9.05421e-07
9.16188e-07
9.3749e-07
9.64366e-07
9.69089e-07
9.44045e-07
9.24188e-07
9.3932e-07
9.64301e-07
9.55519e-07
9.40178e-07
9.46482e-07
9.76012e-07
1.01475e-06
1.0194e-06
9.75212e-07
9.41528e-07
9.10788e-07
9.02316e-07
8.98109e-07
8.98548e-07
9.04621e-07
9.10417e-07
9.07382e-07
9.03602e-07
9.06413e-07
9.18174e-07
9.42659e-07
9.70674e-07
9.72712e-07
9.44972e-07
9.26547e-07
9.4494e-07
9.6813e-07
9.56898e-07
9.42311e-07
9.49427e-07
9.79305e-07
1.01991e-06
1.02874e-06
9.8519e-07
9.46194e-07
9.08392e-07
9.00457e-07
8.97207e-07
8.98878e-07
9.06201e-07
9.11321e-07
9.07199e-07
9.03986e-07
9.07714e-07
9.20632e-07
9.48475e-07
9.77463e-07
9.76351e-07
9.46164e-07
9.2954e-07
9.50914e-07
9.71796e-07
9.58381e-07
9.44671e-07
9.52589e-07
9.82737e-07
1.02501e-06
1.03831e-06
9.96378e-07
9.52028e-07
9.06158e-07
8.99045e-07
8.9671e-07
8.99715e-07
9.08142e-07
9.12243e-07
9.07148e-07
9.04614e-07
9.09285e-07
9.23737e-07
9.55051e-07
9.8466e-07
9.79974e-07
9.47629e-07
9.33188e-07
9.5715e-07
9.75311e-07
9.60008e-07
9.47262e-07
9.55956e-07
9.86281e-07
1.03001e-06
1.04793e-06
1.00869e-06
9.59394e-07
9.04236e-07
8.98121e-07
8.96653e-07
9.01021e-07
9.10406e-07
9.13136e-07
9.07224e-07
9.05487e-07
9.11195e-07
9.27579e-07
9.62356e-07
9.92195e-07
9.83649e-07
9.49363e-07
9.37422e-07
9.6349e-07
9.78641e-07
9.61806e-07
9.50131e-07
9.59567e-07
9.89974e-07
1.03493e-06
1.05742e-06
1.02181e-06
9.68388e-07
9.02829e-07
8.97572e-07
8.96992e-07
9.02878e-07
9.12899e-07
9.13959e-07
9.07448e-07
9.06649e-07
9.13556e-07
9.32233e-07
9.70274e-07
9.99968e-07
9.87299e-07
9.51366e-07
9.42235e-07
9.69857e-07
9.81837e-07
9.63818e-07
9.53251e-07
9.63358e-07
9.93788e-07
1.03978e-06
1.06673e-06
1.03556e-06
9.79034e-07
9.01823e-07
8.9736e-07
8.97774e-07
9.05314e-07
9.1549e-07
9.14687e-07
9.07914e-07
9.08191e-07
9.16435e-07
9.37668e-07
9.78686e-07
1.00785e-06
9.90931e-07
9.5365e-07
9.47575e-07
9.76188e-07
9.84923e-07
9.66071e-07
9.56633e-07
9.67342e-07
9.97754e-07
1.04459e-06
1.07582e-06
1.04972e-06
9.91206e-07
9.01198e-07
8.97528e-07
8.99045e-07
9.08252e-07
9.18087e-07
9.15348e-07
9.0869e-07
9.10147e-07
9.19886e-07
9.43958e-07
9.8765e-07
1.01574e-06
9.9452e-07
9.56304e-07
9.53458e-07
9.82481e-07
9.87993e-07
9.68593e-07
9.60229e-07
9.71465e-07
1.00185e-06
1.04938e-06
1.08469e-06
1.06422e-06
1.00483e-06
9.00992e-07
8.98097e-07
9.00845e-07
9.11584e-07
9.20605e-07
9.16022e-07
9.09845e-07
9.12549e-07
9.23943e-07
9.51142e-07
9.97208e-07
1.02361e-06
9.98103e-07
9.59376e-07
9.59837e-07
9.8872e-07
9.91095e-07
9.71386e-07
9.64039e-07
9.7576e-07
1.0061e-06
1.05414e-06
1.09325e-06
1.07886e-06
1.01983e-06
9.01251e-07
8.99046e-07
9.03116e-07
9.1522e-07
9.23014e-07
9.16825e-07
9.11404e-07
9.1541e-07
9.2869e-07
9.59287e-07
1.00745e-06
1.03141e-06
1.00162e-06
9.62941e-07
9.66662e-07
9.94865e-07
9.94274e-07
9.7443e-07
9.68013e-07
9.80183e-07
1.01047e-06
1.05888e-06
1.10151e-06
1.09355e-06
1.03614e-06
9.01884e-07
9.00313e-07
9.05845e-07
9.19106e-07
9.25312e-07
9.17861e-07
9.13418e-07
9.18787e-07
9.34192e-07
9.68369e-07
1.01837e-06
1.03914e-06
1.00513e-06
9.67031e-07
9.739e-07
1.00095e-06
9.97555e-07
9.77711e-07
9.72164e-07
9.84749e-07
1.01498e-06
1.06361e-06
1.10944e-06
1.10812e-06
1.05361e-06
9.02796e-07
9.01857e-07
9.09031e-07
9.23223e-07
9.27575e-07
9.19187e-07
9.1588e-07
9.22662e-07
9.40475e-07
9.78439e-07
1.0299e-06
1.0467e-06
1.00868e-06
9.71725e-07
9.81483e-07
1.00694e-06
1.00097e-06
9.81237e-07
9.76473e-07
9.89417e-07
1.01957e-06
1.06833e-06
1.11707e-06
1.12252e-06
1.0722e-06
9.03884e-07
9.03702e-07
9.1273e-07
9.2753e-07
9.29826e-07
9.20828e-07
9.18794e-07
9.27047e-07
9.47521e-07
9.89441e-07
1.04189e-06
1.05416e-06
1.01239e-06
9.77047e-07
9.89398e-07
1.01286e-06
1.00449e-06
9.8496e-07
9.80914e-07
9.94192e-07
1.02427e-06
1.07306e-06
1.12438e-06
1.1366e-06
1.09169e-06
9.05133e-07
9.05923e-07
9.16947e-07
9.31935e-07
9.3209e-07
9.2283e-07
9.22125e-07
9.31934e-07
9.55343e-07
1.00135e-06
1.05425e-06
1.0615e-06
1.01634e-06
9.83012e-07
9.9753e-07
1.01869e-06
1.00817e-06
9.88905e-07
9.85485e-07
9.99043e-07
1.02905e-06
1.07776e-06
1.13136e-06
1.15029e-06
1.11203e-06
9.0654e-07
9.08594e-07
9.21681e-07
9.36364e-07
9.34377e-07
9.25211e-07
9.25856e-07
9.37361e-07
9.63982e-07
1.01405e-06
1.06683e-06
1.06875e-06
1.02062e-06
9.8964e-07
1.00587e-06
1.02442e-06
1.01195e-06
9.93021e-07
9.90168e-07
1.00397e-06
1.0339e-06
1.08247e-06
1.13801e-06
1.1635e-06
1.13297e-06
9.0818e-07
9.11739e-07
9.26828e-07
9.40775e-07
9.3677e-07
9.27983e-07
9.29959e-07
9.43323e-07
9.73468e-07
1.02751e-06
1.0795e-06
1.07584e-06
1.02532e-06
9.96899e-07
1.01427e-06
1.03007e-06
1.01592e-06
9.97336e-07
9.94952e-07
1.00893e-06
1.03876e-06
1.08712e-06
1.14433e-06
1.17623e-06
1.15451e-06
9.10086e-07
9.15372e-07
9.32307e-07
9.45134e-07
9.393e-07
9.31112e-07
9.3445e-07
9.49861e-07
9.83844e-07
1.04169e-06
1.09216e-06
1.08283e-06
1.03049e-06
1.00473e-06
1.02271e-06
1.03563e-06
1.01999e-06
1.00178e-06
9.9979e-07
1.01391e-06
1.04361e-06
1.09169e-06
1.1503e-06
1.18837e-06
1.17644e-06
9.12316e-07
9.19523e-07
9.38044e-07
9.4942e-07
9.42009e-07
9.34567e-07
9.39302e-07
9.57008e-07
9.95175e-07
1.05658e-06
1.10478e-06
1.08976e-06
1.03616e-06
1.01305e-06
1.03112e-06
1.04112e-06
1.0242e-06
1.00633e-06
1.00464e-06
1.01883e-06
1.04837e-06
1.09612e-06
1.15593e-06
1.2e-06
1.19879e-06
9.14851e-07
9.24206e-07
9.44034e-07
9.53626e-07
9.44875e-07
9.38301e-07
9.44545e-07
9.64891e-07
1.00754e-06
1.07209e-06
1.11724e-06
1.09661e-06
1.04232e-06
1.0218e-06
1.03944e-06
1.04652e-06
1.02849e-06
1.01094e-06
1.00948e-06
1.02365e-06
1.05298e-06
1.10036e-06
1.16118e-06
1.21107e-06
1.22158e-06
9.17726e-07
9.29384e-07
9.50156e-07
9.57719e-07
9.47917e-07
9.42344e-07
9.50247e-07
9.7364e-07
1.02102e-06
1.0882e-06
1.12951e-06
1.10343e-06
1.0489e-06
1.03081e-06
1.0476e-06
1.05179e-06
1.03278e-06
1.01551e-06
1.0142e-06
1.0283e-06
1.05736e-06
1.10432e-06
1.16603e-06
1.22163e-06
1.24486e-06
9.20967e-07
9.35016e-07
9.563e-07
9.61647e-07
9.51098e-07
9.46719e-07
9.56531e-07
9.83374e-07
1.03554e-06
1.10455e-06
1.14128e-06
1.11012e-06
1.05602e-06
1.04021e-06
1.05566e-06
1.05697e-06
1.03707e-06
1.02001e-06
1.01873e-06
1.03264e-06
1.06138e-06
1.10794e-06
1.17044e-06
1.23182e-06
1.26881e-06
9.24316e-07
9.40691e-07
9.62079e-07
9.65291e-07
9.54383e-07
9.51376e-07
9.63334e-07
9.94028e-07
1.05105e-06
1.12096e-06
1.15193e-06
1.11558e-06
1.06238e-06
1.04876e-06
1.06256e-06
1.06111e-06
1.04061e-06
1.02392e-06
1.0227e-06
1.03637e-06
1.06468e-06
1.11069e-06
1.17388e-06
1.24125e-06
1.29319e-06
9.2992e-07
9.48905e-07
9.7002e-07
9.70876e-07
9.59748e-07
9.58345e-07
9.72952e-07
1.00812e-06
1.07007e-06
1.14061e-06
1.16667e-06
1.12653e-06
1.07412e-06
1.06171e-06
1.07338e-06
1.06883e-06
1.04683e-06
1.02947e-06
1.02762e-06
1.04074e-06
1.06861e-06
1.11431e-06
1.1787e-06
1.25269e-06
1.32027e-06
9.24592e-07
9.43352e-07
9.62029e-07
9.61643e-07
9.52256e-07
9.52694e-07
9.68359e-07
1.00422e-06
1.06399e-06
1.12526e-06
1.13991e-06
1.09876e-06
1.05491e-06
1.0474e-06
1.05686e-06
1.05142e-06
1.03314e-06
1.02017e-06
1.02073e-06
1.0345e-06
1.06183e-06
1.10608e-06
1.16947e-06
1.24697e-06
1.32674e-06
9.99795e-07
1.04198e-06
1.07047e-06
1.06015e-06
1.04068e-06
1.04369e-06
1.0774e-06
1.15167e-06
1.26754e-06
1.37468e-06
1.38881e-06
1.3048e-06
1.2165e-06
1.18908e-06
1.18944e-06
1.16622e-06
1.12221e-06
1.08639e-06
1.07193e-06
1.07726e-06
1.10061e-06
1.14549e-06
1.21785e-06
1.31935e-06
1.44076e-06
8.93275e-07
8.9503e-07
8.95952e-07
8.96034e-07
8.96673e-07
8.98545e-07
9.01448e-07
9.05042e-07
9.08528e-07
9.10488e-07
9.10252e-07
9.09614e-07
9.11478e-07
9.1643e-07
9.21838e-07
9.25629e-07
9.29403e-07
9.36306e-07
9.48746e-07
9.69031e-07
1.00007e-06
1.04325e-06
1.09397e-06
1.14118e-06
1.1799e-06
6.05712e-07
8.85703e-07
8.81299e-07
8.81346e-07
8.81802e-07
8.82416e-07
8.83102e-07
8.8389e-07
8.84795e-07
8.85831e-07
8.8702e-07
8.88382e-07
8.89944e-07
8.9174e-07
8.93802e-07
8.9616e-07
8.98849e-07
9.01915e-07
9.05407e-07
9.09382e-07
9.13902e-07
9.19034e-07
9.24849e-07
9.31423e-07
9.38838e-07
9.47209e-07
9.56689e-07
9.67397e-07
9.79217e-07
9.91634e-07
1.00375e-06
1.0143e-06
1.02179e-06
1.02565e-06
1.02639e-06
1.02374e-06
1.01784e-06
1.01016e-06
1.00228e-06
9.96057e-07
9.91308e-07
9.87039e-07
9.82065e-07
9.75554e-07
9.67098e-07
9.56558e-07
9.44267e-07
9.31733e-07
9.2115e-07
9.12676e-07
9.05778e-07
9.00636e-07
8.96599e-07
8.93344e-07
8.9064e-07
8.88513e-07
8.86768e-07
8.85421e-07
8.84413e-07
8.83667e-07
8.83105e-07
8.82678e-07
8.82398e-07
8.82283e-07
8.8233e-07
8.82544e-07
8.83035e-07
8.83968e-07
8.8533e-07
8.86887e-07
8.88489e-07
8.90385e-07
8.92907e-07
8.96115e-07
9.0009e-07
9.05487e-07
9.12699e-07
9.21362e-07
9.30744e-07
9.37882e-07
9.3769e-07
9.30356e-07
9.24069e-07
9.24944e-07
9.32245e-07
9.43393e-07
9.57443e-07
9.74566e-07
9.93691e-07
1.01142e-06
1.02406e-06
1.03184e-06
1.04085e-06
1.05988e-06
1.09499e-06
1.14592e-06
1.20367e-06
1.23992e-06
1.21916e-06
9.50582e-07
8.87968e-07
8.80398e-07
8.80191e-07
8.80807e-07
8.81601e-07
8.82405e-07
8.83238e-07
8.84123e-07
8.85071e-07
8.86092e-07
8.87188e-07
8.88369e-07
8.89648e-07
8.91037e-07
8.92542e-07
8.94163e-07
8.95901e-07
8.97757e-07
8.99735e-07
9.01842e-07
9.04083e-07
9.06462e-07
9.08981e-07
9.11646e-07
9.14456e-07
9.17404e-07
9.20479e-07
9.23742e-07
9.27412e-07
9.31884e-07
9.37637e-07
9.45107e-07
9.54499e-07
9.65854e-07
9.79521e-07
9.95587e-07
1.01303e-06
1.02907e-06
1.04014e-06
1.04557e-06
1.04648e-06
1.04374e-06
1.03775e-06
1.02781e-06
1.01605e-06
1.00597e-06
9.99946e-07
9.97889e-07
9.98802e-07
1.00127e-06
1.00288e-06
1.00022e-06
9.91193e-07
9.7921e-07
9.65005e-07
9.48962e-07
9.33719e-07
9.21248e-07
9.12037e-07
9.05633e-07
9.01108e-07
8.98249e-07
8.97407e-07
8.97564e-07
8.96627e-07
8.94827e-07
8.94498e-07
8.98489e-07
9.08241e-07
9.195e-07
9.25158e-07
9.27223e-07
9.42644e-07
9.70451e-07
1.00727e-06
1.08627e-06
1.23936e-06
1.45463e-06
1.66238e-06
1.73731e-06
1.61081e-06
1.38778e-06
1.2317e-06
1.19528e-06
1.23276e-06
1.29489e-06
1.36747e-06
1.45172e-06
1.53276e-06
1.57844e-06
1.57329e-06
1.54373e-06
1.53672e-06
1.57337e-06
1.62938e-06
1.66262e-06
1.641e-06
1.559e-06
9.44037e-07
8.87992e-07
8.79162e-07
8.78531e-07
8.79083e-07
8.79889e-07
8.80714e-07
8.81554e-07
8.82429e-07
8.83354e-07
8.84337e-07
8.85385e-07
8.8651e-07
8.87722e-07
8.89034e-07
8.90462e-07
8.92018e-07
8.9371e-07
8.95546e-07
8.97541e-07
8.99711e-07
9.02079e-07
9.04669e-07
9.07505e-07
9.10614e-07
9.14029e-07
9.17797e-07
9.21972e-07
9.26606e-07
9.31739e-07
9.37389e-07
9.43558e-07
9.50272e-07
9.57617e-07
9.65722e-07
9.74689e-07
9.84696e-07
9.96107e-07
1.00913e-06
1.02251e-06
1.03281e-06
1.03781e-06
1.03823e-06
1.03597e-06
1.03147e-06
1.02179e-06
1.00726e-06
9.92192e-07
9.79703e-07
9.70454e-07
9.6405e-07
9.60306e-07
9.56784e-07
9.49336e-07
9.40656e-07
9.30919e-07
9.19147e-07
9.07214e-07
8.97021e-07
8.89145e-07
8.83978e-07
8.80836e-07
8.78699e-07
8.77772e-07
8.7766e-07
8.76998e-07
8.76148e-07
8.75706e-07
8.76373e-07
8.79426e-07
8.85649e-07
8.9206e-07
8.92726e-07
8.96409e-07
9.10297e-07
9.26613e-07
9.53623e-07
1.01272e-06
1.10475e-06
1.20267e-06
1.25863e-06
1.23264e-06
1.14591e-06
1.07005e-06
1.05089e-06
1.08099e-06
1.13406e-06
1.19571e-06
1.26354e-06
1.32901e-06
1.37012e-06
1.37337e-06
1.35765e-06
1.36152e-06
1.40103e-06
1.45063e-06
1.47211e-06
1.45103e-06
1.39788e-06
9.38455e-07
8.88151e-07
8.78177e-07
8.77181e-07
8.77626e-07
8.78391e-07
8.79189e-07
8.79997e-07
8.80823e-07
8.81682e-07
8.82576e-07
8.83511e-07
8.84493e-07
8.85528e-07
8.86618e-07
8.87779e-07
8.89029e-07
8.90381e-07
8.91837e-07
8.93413e-07
8.95124e-07
8.9699e-07
8.99033e-07
9.01276e-07
9.03739e-07
9.0646e-07
9.09493e-07
9.1289e-07
9.16705e-07
9.21001e-07
9.25861e-07
9.31378e-07
9.37645e-07
9.44751e-07
9.52793e-07
9.61878e-07
9.72118e-07
9.83627e-07
9.96619e-07
1.0114e-06
1.02674e-06
1.03689e-06
1.04137e-06
1.04053e-06
1.03759e-06
1.03182e-06
1.02015e-06
1.00516e-06
9.91247e-07
9.81134e-07
9.73982e-07
9.69687e-07
9.67507e-07
9.61718e-07
9.52637e-07
9.43081e-07
9.3119e-07
9.18416e-07
9.07022e-07
8.9759e-07
8.91029e-07
8.87083e-07
8.84502e-07
8.83185e-07
8.82437e-07
8.81209e-07
8.79996e-07
8.79348e-07
8.7992e-07
8.82564e-07
8.8828e-07
8.95742e-07
8.97644e-07
9.00003e-07
9.1353e-07
9.31347e-07
9.58121e-07
1.01722e-06
1.11683e-06
1.23134e-06
1.30565e-06
1.28622e-06
1.18853e-06
1.09564e-06
1.06776e-06
1.0998e-06
1.15859e-06
1.22413e-06
1.29385e-06
1.3608e-06
1.40265e-06
1.40536e-06
1.39114e-06
1.40199e-06
1.44704e-06
1.4849e-06
1.4763e-06
1.43051e-06
1.3766e-06
9.32643e-07
8.87837e-07
8.77059e-07
8.75754e-07
8.7608e-07
8.76772e-07
8.77512e-07
8.78259e-07
8.79019e-07
8.79799e-07
8.80601e-07
8.81432e-07
8.82294e-07
8.8319e-07
8.84112e-07
8.85073e-07
8.86109e-07
8.8724e-07
8.88471e-07
8.89821e-07
8.91309e-07
8.92957e-07
8.94792e-07
8.9684e-07
8.99123e-07
9.01683e-07
9.04572e-07
9.07842e-07
9.11545e-07
9.1574e-07
9.20492e-07
9.25879e-07
9.31978e-07
9.3887e-07
9.46647e-07
9.55407e-07
9.65257e-07
9.76312e-07
9.8869e-07
1.00257e-06
1.01819e-06
1.03238e-06
1.04011e-06
1.04245e-06
1.04026e-06
1.03641e-06
1.02771e-06
1.01363e-06
9.98734e-07
9.86429e-07
9.7788e-07
9.72016e-07
9.69078e-07
9.64481e-07
9.56197e-07
9.47045e-07
9.35522e-07
9.22679e-07
9.10805e-07
9.00654e-07
8.93078e-07
8.88314e-07
8.85474e-07
8.83585e-07
8.81987e-07
8.80502e-07
8.79211e-07
8.78398e-07
8.78564e-07
8.80188e-07
8.84537e-07
8.92191e-07
8.95552e-07
8.96361e-07
9.06997e-07
9.23744e-07
9.46236e-07
9.94447e-07
1.08315e-06