/*--------------------------------*- C++ -*----------------------------------*\
  =========                 |
  \\      /  F ield         | OpenFOAM: The Open Source CFD Toolbox
   \\    /   O peration     | Website:  https://openfoam.org
    \\  /    A nd           | Version:  9
     \\/     M anipulation  |
\*---------------------------------------------------------------------------*/
FoamFile
{
    format      ascii;
    class       volScalarField;
    location    "750";
    object      omega;
}
// * * * * * * * * * * * * * * * * * * * * * * * * * * * * * * * * * * * * * //

dimensions      [0 0 -1 0 0 0 0];

internalField   nonuniform List<scalar> 
13354
(
119.166
117.69
117.517
117.793
117.146
116.628
117.223
119.381
122.918
127.896
136.465
153.352
171.551
120.129
119.216
118.89
119.615
119.651
119.079
119.016
120.397
122.905
127.155
136.711
154.237
168.948
118.852
118.459
118.411
119.17
119.285
118.98
119.353
120.778
122.582
126.292
135.945
149.656
159.008
116.025
116.115
116.504
117.635
118.001
118.019
118.661
119.891
121.091
123.738
131.321
141.125
147.44
112.344
112.859
113.622
114.949
115.296
115.501
116.293
117.184
117.842
119.067
123.49
130.427
136.747
108.779
109.277
110.15
111.538
111.578
111.47
112.302
113.239
113.345
113.14
114.865
119.687
127.001
105.643
105.74
106.428
107.686
107.405
106.53
107.122
108.194
107.973
106.838
106.862
110.123
117.785
102.784
102.322
102.497
103.647
103.119
101.805
101.913
102.849
102.482
100.983
100.243
102.359
109.402
100.109
99.0323
98.603
99.3807
99.0202
97.6863
97.4919
98.1862
97.8224
96.2559
95.033
96.286
102.307
97.5072
95.8386
94.8684
95.1817
94.7946
93.8107
93.585
94.2072
94.0209
92.5475
91.0186
91.5815
96.6689
94.9487
92.859
91.3259
91.1713
90.6542
89.9136
89.8221
90.4479
90.5251
89.3841
87.866
87.9871
92.2343
92.4036
90.2427
88.1647
87.5691
87.0022
86.419
86.3243
86.7979
87.0548
86.4067
85.2371
85.2163
88.5131
89.8883
87.9424
85.596
84.6469
84.0487
83.5639
83.374
83.5015
83.6675
83.4258
82.791
82.7618
85.1276
87.4792
85.8499
83.631
82.3992
81.7267
81.3282
81.04
80.8303
80.6862
80.5395
80.29
80.2351
81.8421
85.0951
83.7631
81.9582
80.6345
79.7634
79.4458
79.2262
78.7815
78.3626
78.063
77.8114
77.5936
78.5559
82.7781
81.6996
80.3565
79.1495
78.0977
77.7454
77.6665
77.1627
76.6301
76.1301
75.6304
75.2003
75.5906
80.6101
79.7102
78.6685
77.6493
76.5996
76.1687
76.186
75.728
75.1886
74.5607
73.8603
73.2415
73.1717
78.4142
77.6856
76.8782
76.0328
75.1075
74.6592
74.725
74.3166
73.7744
73.1132
72.3513
71.5913
71.1986
76.318
75.7232
75.0635
74.3524
73.5952
73.1973
73.268
72.8456
72.297
71.6422
70.9054
70.0925
69.4622
74.2372
73.7331
73.2084
72.6314
72.0398
71.6877
71.7568
71.3082
70.7316
70.1021
69.4121
68.6307
67.7836
72.171
71.7514
71.3553
70.8769
70.3941
70.1017
70.1477
69.7004
69.0978
68.4729
67.8251
67.1001
66.1012
70.1373
69.7985
69.4927
69.0859
68.6502
68.4191
68.4632
68.0177
67.4014
66.7699
66.1393
65.4652
64.4452
68.1168
67.8297
67.5856
67.2342
66.8506
66.6317
66.7041
66.2581
65.6284
65.0171
64.407
63.7552
62.7853
66.0946
65.842
65.6475
65.3275
64.9887
64.7661
64.8459
64.4409
63.7974
63.2038
62.6094
61.9847
61.1095
64.042
63.825
63.669
63.3824
63.0802
62.8699
62.9397
62.5807
61.9422
61.3631
60.7752
60.1795
59.4199
62.0218
61.8276
61.693
61.4198
61.1468
60.9499
61.0198
60.691
60.0871
59.5315
58.9605
58.3861
57.7243
59.9882
59.8236
59.7155
59.4658
59.2165
59.0268
59.0953
58.8034
58.2311
57.7142
57.1883
56.6459
56.0518
57.9803
57.8251
57.731
57.5036
57.2874
57.1171
57.1913
56.9323
56.3927
55.9147
55.4301
54.9177
54.3794
55.9894
55.8566
55.7741
55.5594
55.3621
55.2107
55.301
55.0787
54.5715
54.1285
53.6867
53.1994
52.7017
54.0332
53.9133
53.8403
53.6431
53.4695
53.3377
53.4358
53.2463
52.7668
52.3544
51.9507
51.49
51.0223
52.1167
52.0143
51.9436
51.7571
51.5982
51.4768
51.5855
51.4324
50.9819
50.5942
50.2303
49.7994
49.3579
50.2294
50.137
50.0673
49.8928
49.7481
49.6429
49.7584
49.6355
49.2164
48.8561
48.5317
48.1308
47.7129
48.3731
48.2963
48.2265
48.0614
47.9287
47.8371
47.9615
47.8647
47.4749
47.1392
46.8503
46.4846
46.0913
46.5535
46.4902
46.4245
46.2728
46.1485
46.0675
46.1985
46.1275
45.7643
45.4505
45.1981
44.865
44.4957
44.7708
44.7242
44.6598
44.5242
44.4118
44.3404
44.4746
44.4255
44.0922
43.7961
43.5709
43.2741
42.9282
43.1159
43.0328
43.0008
42.9412
42.8178
42.7125
42.6553
42.7942
42.7625
42.4571
42.1798
41.9818
41.7174
41.3948
42.5204
42.4342
42.1914
41.9129
41.7401
41.6302
41.5037
41.4452
41.4232
41.341
41.3232
41.2667
41.1575
41.0618
41.0129
41.1557
41.1419
40.8615
40.5996
40.4246
40.1924
39.8943
40.803
40.706
40.46
40.2185
40.0732
39.9626
39.8472
39.8004
39.7655
39.6944
39.6906
39.6393
39.5439
39.4551
39.4193
39.5647
39.5633
39.3079
39.0587
38.9021
38.702
38.4288
39.1235
39.0167
38.7731
38.5644
38.4442
38.337
38.2332
38.1974
38.1575
38.0969
38.1051
38.0581
37.9756
37.8953
37.8705
38.0189
38.0301
37.7983
37.5626
37.4203
37.245
36.9966
37.49
37.3717
37.1362
36.9579
36.8576
36.7564
36.666
36.6363
36.5946
36.5496
36.5694
36.5268
36.457
36.3829
36.3698
36.5225
36.5425
36.3324
36.1076
35.9787
35.8302
35.6039
35.9031
35.7725
35.548
35.3971
35.3128
35.217
35.1426
35.1197
35.076
35.0475
35.0815
35.0448
34.986
34.9174
34.9151
35.0713
35.1002
34.9121
34.6975
34.5768
34.4498
34.2474
34.3629
34.2208
34.0111
33.884
33.8135
33.7267
33.6675
33.6501
33.6107
33.5993
33.6432
33.6106
33.5626
33.5
33.51
33.6696
33.7032
33.5357
33.3322
33.2172
33.1095
32.9305
32.8741
32.8731
32.7195
32.5288
32.4241
32.364
32.2869
32.2432
32.2299
32.1973
32.204
32.2575
32.2278
32.1868
32.1301
32.1517
32.3135
32.3526
32.2048
32.0105
31.9008
31.8103
31.6509
31.4549
31.4359
31.2751
31.1048
31.0198
30.9679
30.9018
30.8729
30.863
30.8393
30.8588
30.9182
30.8938
30.8604
30.8086
30.8407
31.005
31.0457
30.9175
30.7342
30.6252
30.5488
30.4113
30.0818
30.0505
29.8878
29.7399
29.6716
29.6271
29.5734
29.5571
29.5492
29.5352
29.5669
29.6298
29.6068
29.5793
29.5346
29.5774
29.7427
29.7842
29.6746
29.5016
29.3942
29.33
29.2084
28.7584
28.7161
28.5559
28.431
28.3775
28.3382
28.2964
28.2912
28.2851
28.2803
28.3226
28.3889
28.3697
28.3467
28.3065
28.3591
28.525
28.5665
28.4753
28.312
28.2039
28.1495
28.0456
27.4817
27.4299
27.2783
27.1745
27.133
27.0994
27.0692
27.0723
27.0688
27.0734
27.1254
27.1926
27.1772
27.1599
27.1261
27.1883
27.3523
27.3919
27.318
27.1657
27.0571
27.0098
26.9209
26.2515
26.1907
26.0525
25.9688
25.937
25.9084
25.8907
25.9003
25.8987
25.9131
25.9747
26.043
26.0314
26.0166
25.9884
26.0602
26.223
26.2612
26.2027
26.0609
25.9508
25.9092
25.8344
25.0698
25.0009
24.8776
24.8118
24.7885
24.7654
24.758
24.7727
24.7743
24.7971
24.8676
24.9374
24.9302
24.9173
24.896
24.977
25.1362
25.1705
25.1276
24.9985
24.8853
24.8476
24.7863
23.9366
23.8612
23.7538
23.7028
23.6858
23.6699
23.6734
23.6901
23.6957
23.7269
23.8047
23.8745
23.8707
23.8601
23.846
23.9359
24.0914
24.122
24.0933
23.9752
23.8599
23.8253
23.774
22.851
22.7704
22.6781
22.6407
22.6294
22.6198
22.6333
22.6519
22.661
22.6992
22.7848
22.8549
22.854
22.844
22.8372
22.9364
23.0863
23.112
23.0977
22.9925
22.8743
22.8408
22.7998
21.8108
21.7273
21.6494
21.6231
21.617
21.615
21.6356
21.6544
21.6689
21.7136
21.8051
21.8741
21.877
21.869
21.8691
21.9768
22.1205
22.1427
22.1413
22.0471
21.9268
21.8932
21.8605
20.814
20.7305
20.6666
20.6494
20.6479
20.6539
20.6806
20.6991
20.7181
20.7696
20.867
20.9339
20.9386
20.9303
20.9393
21.057
21.1928
21.2103
21.2209
21.1402
21.0175
20.9812
20.957
19.858
19.7776
19.7274
19.7183
19.7209
19.7342
19.7647
19.7831
19.8076
19.8654
19.9669
20.0316
20.0388
20.0313
20.0483
20.1736
20.3009
20.316
20.338
20.2688
20.1438
20.1052
20.0879
18.9432
18.8683
18.8302
18.8276
18.8344
18.8549
18.8874
18.9057
18.9357
18.9998
19.1048
19.1667
19.1742
19.1672
19.1936
19.3268
19.4444
19.4563
19.4889
19.4334
19.3069
19.2639
19.2519
18.068
18.0011
17.9741
17.9765
17.9875
18.0144
18.0475
18.0663
18.1014
18.1711
18.2787
18.3383
18.3463
18.3394
18.374
18.5139
18.6214
18.6324
18.6754
18.6314
18.5036
18.4561
18.4486
17.2317
17.1738
17.1565
17.1637
17.1788
17.2103
17.2424
17.2629
17.3028
17.3775
17.4871
17.5439
17.5517
17.5458
17.5894
17.7349
17.8309
17.8408
17.8933
17.8628
17.7359
17.6817
17.6767
16.4335
16.3858
16.3762
16.3867
16.4064
16.4423
16.4727
16.4952
16.5397
16.6196
16.7302
16.7835
16.7901
16.7849
16.8376
16.9872
17.0712
17.0824
17.1442
17.1256
16.9994
16.9387
16.9363
15.7235
15.6722
15.6345
15.6317
15.6452
15.6689
15.7073
15.7364
15.7616
15.8096
15.8942
16.0051
16.0555
16.0606
16.0564
16.1186
16.2703
16.3421
16.3542
16.4236
16.4187
16.2961
16.2276
16.2256
15.0014
14.947
14.9182
14.9209
14.9372
14.9651
15.0049
15.0319
15.0599
15.1119
15.2014
15.3113
15.358
15.3608
15.3588
15.4309
15.5822
15.6418
15.6566
15.7335
15.7407
15.6215
15.5458
15.5444
14.303
14.308
14.2563
14.2354
14.2426
14.2614
14.2933
14.3334
14.3591
14.39
14.4454
14.5391
14.6483
14.6919
14.6918
14.692
14.7733
14.9225
14.9704
14.9868
15.0697
15.0897
14.9767
14.8942
14.8917
13.6513
13.6441
13.5979
13.5846
13.5955
13.6169
13.6522
13.6912
13.7153
13.7496
13.8086
13.9062
14.0134
14.0531
14.0505
14.0548
14.1453
14.2896
14.3265
14.3457
14.4334
14.4643
14.358
14.2693
14.2656
13.0255
13.0087
12.9703
12.9641
12.978
13.002
13.0403
13.0776
13.1014
13.1386
13.2007
13.3021
13.4074
13.4431
13.4373
13.445
13.5447
13.683
13.7102
13.7317
13.8227
13.8638
13.7657
13.6713
13.6654
12.4257
12.4017
12.3726
12.3729
12.389
12.4156
12.456
12.4907
12.5148
12.5551
12.6205
12.7251
12.8275
12.859
12.8508
12.8635
12.9713
13.101
13.1198
13.1444
13.2382
13.2881
13.1979
13.0975
13.0885
11.8508
11.8238
11.8037
11.8092
11.8274
11.8568
11.8983
11.9303
11.9553
11.9983
12.0667
12.1742
12.2735
12.3006
12.2894
12.3074
12.423
12.5435
12.5556
12.5828
12.6781
12.7363
12.6551
12.5491
12.5356
11.3012
11.2751
11.2627
11.2718
11.2917
11.3238
11.3657
11.395
11.4212
11.4667
11.5383
11.6484
11.7442
11.7665
11.7532
11.7777
11.8993
12.0086
12.0155
12.0458
12.1421
12.2077
12.1356
12.0248
12.0053
10.7778
10.7544
10.7479
10.7594
10.7811
10.8158
10.857
10.8837
10.9116
10.9596
11.0343
11.1463
11.2384
11.2556
11.2405
11.2718
11.3983
11.4966
11.4998
11.5327
11.6294
11.7015
11.6391
11.5243
11.498
10.2801
10.2596
10.2575
10.2708
10.2943
10.3314
10.3713
10.3959
10.4256
10.4758
10.5536
10.6676
10.7553
10.7671
10.7511
10.7902
10.9194
11.0058
11.0064
11.0421
11.1388
11.2166
11.1644
11.0471
11.0127
9.80648
9.78868
9.78993
9.80492
9.83046
9.86963
9.90715
9.93021
9.96216
10.0143
10.0951
10.2103
10.2935
10.3
10.2837
10.3304
10.4609
10.5362
10.5357
10.574
10.6701
10.7524
10.7105
10.5921
10.5493
9.35523
9.34055
9.34467
9.36109
9.38871
9.42927
9.464
9.48591
9.52008
9.57443
9.65866
9.77485
9.85279
9.85352
9.83755
9.89266
10.0225
10.0864
10.0858
10.1263
10.2213
10.3077
10.2769
10.1588
10.1068
8.92511
8.91351
8.92005
8.93812
8.96779
9.00874
9.04063
9.06235
9.09872
9.15489
9.24192
9.35858
9.43138
9.42688
9.41228
9.47526
9.60252
9.65625
9.65668
9.69953
9.79313
9.88233
9.86213
9.74585
9.68501
8.51551
8.5073
8.51584
8.5351
8.56684
8.60781
8.63651
8.65844
8.69684
8.75504
8.84549
8.96219
9.02887
9.01871
9.00636
9.07743
9.20063
9.24474
9.24651
9.2912
9.38306
9.47522
9.46622
9.3531
9.28309
8.12524
8.12018
8.1304
8.15106
8.18485
8.22527
8.25109
8.27372
8.31405
8.37398
8.4674
8.58367
8.64426
8.62933
8.62018
8.69808
8.81536
8.85175
8.85598
8.90193
8.99169
9.08534
9.08637
8.97822
8.90041
7.75389
7.75157
7.76303
7.78521
7.82099
7.85987
7.8829
7.9067
7.94879
8.01082
8.10745
8.22262
8.27617
8.25666
8.25193
8.33638
8.44688
8.4762
8.4827
8.52963
8.61755
8.71276
8.7238
8.62204
8.53667
7.40045
7.40052
7.41317
7.43703
7.47438
7.51119
7.53191
7.5572
7.60091
7.66483
7.76463
7.87845
7.92495
7.90161
7.90162
7.99094
8.09384
8.11782
8.12688
8.1747
8.2605
8.35595
8.37601
8.28219
8.19077
7.06403
7.06607
7.0798
7.10529
7.14385
7.17823
7.19731
7.22421
7.26933
7.33554
7.43837
7.54974
7.58876
7.56225
7.56782
7.66138
7.75636
7.7758
7.78727
7.83572
7.91941
8.01493
8.04376
7.95887
7.86246
6.74373
6.74744
6.76229
6.78963
6.82883
6.86017
6.8782
6.90691
6.95356
7.02222
7.12775
7.23629
7.26789
7.23909
7.25039
7.34651
7.43319
7.44933
7.46338
7.51234
7.59367
7.68842
7.7252
7.65012
7.55034
6.43871
6.44386
6.45984
6.4889
6.52831
6.5568
6.57424
6.60467
6.65257
6.72381
6.83193
6.93678
6.96091
6.93064
6.94819
7.04585
7.1243
7.13784
7.15452
7.20395
7.28291
7.37651
7.42033
7.35581
7.25439
6.14836
6.15462
6.1718
6.20273
6.24165
6.26695
6.28434
6.31679
6.36626
6.44008
6.55035
6.65084
6.66759
6.6368
6.6606
6.75838
6.82873
6.84063
6.85973
6.90939
6.9862
7.07857
7.12858
7.07477
6.97342
5.87184
5.87915
5.89762
5.93025
5.9682
5.99075
6.00865
6.04256
6.09333
6.17009
6.28232
6.37775
6.38721
6.35687
6.38692
6.48362
6.54649
6.55765
6.57907
6.6287
6.70312
6.79368
6.84894
6.80617
6.70718
5.60846
5.6167
5.63657
5.67081
5.70718
5.72713
5.74594
5.78146
5.83362
5.91326
6.02688
6.11657
6.11935
6.09045
6.12638
6.2209
6.27672
6.28747
6.31095
6.3606
6.43308
6.52185
6.58156
6.54956
6.4541
5.3577
5.3669
5.38821
5.42368
5.45807
5.47588
5.4959
5.53277
5.58647
5.66927
5.78373
5.86719
5.8638
5.83697
5.87817
5.96954
6.01935
6.03049
6.0558
6.10511
6.17525
6.26179
6.32517
6.30407
6.2143
5.11877
5.12879
5.15175
5.18824
5.22027
5.23634
5.25771
5.29591
5.35127
5.43714
5.55175
5.62843
5.61967
5.59591
5.64191
5.72939
5.77356
5.78511
5.81199
5.86124
5.92968
6.01419
6.08026
6.0691
5.98613
4.89121
4.90222
4.92687
4.96392
4.99337
5.00825
5.03106
5.07046
5.12776
5.21687
5.33095
5.4004
5.38687
5.3665
5.41639
5.49968
5.53942
5.55188
5.58008
5.6288
5.69507
5.77718
5.84557
5.84436
5.76968
4.67452
4.68651
4.71292
4.75012
4.77688
4.79107
4.81535
4.85596
4.9153
5.00726
5.11992
5.18205
5.16485
5.14856
5.20171
5.28032
5.31587
5.3291
5.35855
5.40714
5.47187
5.55173
5.62139
5.62894
5.56352
4.46818
4.48127
4.50931
4.54617
4.57034
4.58435
4.61013
4.65194
4.71353
4.80839
4.91896
4.9736
4.95344
4.94134
4.9969
5.07083
5.10316
5.11749
5.14785
5.19586
5.25866
5.33609
5.40688
5.42292
5.36752
4.27172
4.28601
4.31573
4.35185
4.37346
4.38765
4.41494
4.45796
4.52189
4.61923
4.72693
4.77423
4.75212
4.74458
4.80178
4.87081
4.90023
4.91561
4.94691
4.99459
5.05588
5.13097
5.20199
5.22547
5.18087
4.08464
4.10032
4.13149
4.16641
4.1859
4.20066
4.22925
4.27356
4.34009
4.43962
4.5437
4.58389
4.56061
4.55759
4.61553
4.67985
4.70727
4.72381
4.75567
4.80266
4.86237
4.93531
5.00641
5.03657
5.00304
3.90668
3.92382
3.95627
3.98972
4.00724
4.02271
4.05265
4.09842
4.16768
4.26893
4.36867
4.40216
4.37859
4.37997
4.43807
4.49784
4.5235
4.54114
4.57354
4.62004
4.67828
4.74887
4.81959
4.85586
4.83379
3.73744
3.75616
3.78962
3.82134
3.83735
3.85376
3.88487
3.93212
4.00408
4.10653
4.20145
4.22877
4.2057
4.21128
4.26884
4.32433
4.34877
4.36746
4.40024
4.44627
4.50324
4.57174
4.64172
4.68317
4.67266
3.57655
3.59688
3.63113
3.66099
3.67578
3.69321
3.72559
3.77464
3.84942
3.95244
4.04199
4.06362
4.04161
4.05114
4.10791
4.15957
4.18302
4.20261
4.23559
4.28091
4.33645
4.4029
4.47229
4.51863
4.51976
3.42385
3.44586
3.48047
3.50836
3.52235
3.54096
3.57458
3.62541
3.70285
3.8059
3.88981
3.90651
3.88622
3.89937
3.95473
4.00274
4.02554
4.04614
4.07952
4.12439
4.17864
4.24301
4.31146
4.362
4.37475
3.27903
3.30264
3.33738
3.36337
3.37688
3.39669
3.4316
3.48449
3.56458
3.66689
3.74478
3.75712
3.739
3.75559
3.80944
3.85421
3.87652
3.89793
3.93136
3.97547
4.02842
4.09114
4.15884
4.21346
4.23814
3.14189
3.16719
3.20176
3.22586
3.23924
3.26038
3.29675
3.35194
3.43451
3.53551
3.60751
3.61655
3.60119
3.62072
3.67266
3.7145
3.73671
3.7591
3.79271
3.83624
3.88813
3.94926
4.01614
4.07467
4.11122
3.0147
3.04149
3.07559
3.09794
3.11133
3.13359
3.17127
3.22876
3.3134
3.41209
3.47749
3.48313
3.4705
3.49258
3.54244
3.58166
3.60381
3.62688
3.66042
3.7032
3.75376
3.81312
3.87934
3.94201
3.99069
2.87537
2.90423
2.93824
2.95969
2.97432
2.99902
3.03959
3.10093
3.18883
3.28669
3.34878
3.35486
3.34693
3.37251
3.42195
3.46036
3.48361
3.50836
3.54316
3.58692
3.63819
3.69795
3.76536
3.83312
3.89373
2.90586
2.93426
2.96541
2.98421
2.99771
3.02082
3.05871
3.1166
3.19795
3.28226
3.32752
3.32415
3.31505
3.33681
3.37574
3.40389
3.42046
3.43885
3.46512
3.49833
3.53793
3.58608
3.64468
3.71108
3.78039
1.85866
1.89624
1.93413
1.95653
1.97915
2.01939
2.08341
2.17893
2.30679
2.43703
2.52244
2.55518
2.5837
2.65172
2.74466
2.82858
2.90124
2.98044
3.07533
3.18334
3.29908
3.41768
3.53406
3.64227
3.74064
7.3206
7.32405
7.31967
7.31061
7.29746
7.28037
7.25715
7.22475
7.17922
7.11519
7.02905
6.92042
6.79115
6.63801
6.45349
6.2316
5.97326
5.68268
5.36803
5.04788
4.75094
4.50713
4.34113
4.26654
4.25944
0.386947
2.8568
3.05353
3.24266
3.40492
3.54742
3.67516
3.79198
3.90093
4.00423
4.10379
4.20073
4.2961
4.39074
4.48523
4.57977
4.67461
4.77002
4.866
4.96251
5.05947
5.1568
5.25426
5.35166
5.44879
5.5454
5.64131
5.73623
5.82985
5.92193
6.01218
6.10033
6.18619
6.26957
6.35017
6.42781
6.5024
6.5737
6.64157
6.70605
6.76708
6.82457
6.87847
6.92887
6.97559
7.01907
7.05897
7.09578
7.12921
7.15974
7.18712
7.21186
7.23402
7.25359
7.27085
7.28589
7.29875
7.30976
7.31913
7.32706
7.33369
7.33887
7.34292
7.34549
7.34686
7.34754
7.34786
7.34921
7.35187
7.35535
7.35821
7.36118
7.36444
7.36758
7.371
7.3751
7.3793
7.38174
7.37924
7.36661
7.3372
7.29039
7.23308
7.16986
7.0977
7.00849
6.89667
6.75741
6.58583
6.37546
6.12153
5.82616
5.50351
5.18371
4.90581
4.69558
4.5449
4.41118
4.30165
4.54214
2.76585
2.92477
3.05304
3.16809
3.2691
3.35711
3.43364
3.5002
3.5581
3.6085
3.65204
3.68958
3.72158
3.74839
3.77007
3.78688
3.79898
3.80628
3.80885
3.80664
3.79959
3.78775
3.77097
3.74947
3.72315
3.69228
3.65687
3.61707
3.57311
3.5252
3.47362
3.4187
3.36073
3.29996
3.23694
3.1719
3.10537
3.03761
2.96912
2.90019
2.83124
2.76266
2.69461
2.62751
2.56164
2.49725
2.43459
2.37408
2.31567
2.25945
2.20583
2.15491
2.10667
2.06158
2.01918
1.97986
1.9437
1.91052
1.88073
1.8543
1.83112
1.81086
1.79347
1.7789
1.76676
1.75726
1.75106
1.74999
1.75491
1.76411
1.77334
1.78365
1.80182
1.82806
1.8636
1.92343
2.02088
2.15011
2.27885
2.3568
2.35575
2.31055
2.29433
2.3451
2.44545
2.56572
2.69363
2.82798
2.96504
3.0939
3.21076
3.33062
3.47581
3.64384
3.79258
3.87844
3.88497
3.82872
3.58252
2.8405
2.942
3.03516
3.11981
3.1946
3.25925
3.31418
3.36007
3.39778
3.42801
3.45137
3.46859
3.48005
3.48612
3.48713
3.48345
3.47549
3.46336
3.4475
3.42807
3.40539
3.37976
3.35146
3.32091
3.28839
3.25436
3.21914
3.18313
3.14668
3.11017
3.07392
3.03825
3.00352
2.96995
2.93777
2.90711
2.87815
2.85095
2.82565
2.80233
2.78112
2.762
2.74486
2.72963
2.71628
2.70467
2.69484
2.68675
2.68032
2.6755
2.67213
2.67012
2.66948
2.67008
2.67183
2.67462
2.67854
2.68356
2.68941
2.69626
2.70409
2.71271
2.72198
2.73211
2.74347
2.75594
2.76921
2.78304
2.7982
2.8155
2.83262
2.84715
2.86391
2.88692
2.91382
2.95084
3.01155
3.09622
3.18572
3.24694
3.25452
3.22083
3.19359
3.21101
3.27085
3.34965
3.43016
3.50702
3.5773
3.63437
3.67595
3.71547
3.77476
3.85561
3.92653
3.94946
3.91667
3.85171
3.46949
2.92315
2.99067
3.05572
3.11511
3.16737
3.2119
3.24858
3.27763
3.29959
3.31492
3.3242
3.32798
3.32678
3.32107
3.3113
3.29786
3.28125
3.26172
3.23984
3.21587
3.19018
3.16319
3.13539
3.10722
3.07897
3.0508
3.02284
2.9953
2.96843
2.94242
2.9174
2.89365
2.87138
2.85059
2.83118
2.81304
2.79616
2.7805
2.76603
2.75278
2.74088
2.73027
2.72086
2.71261
2.70546
2.69928
2.6941
2.68993
2.68664
2.68426
2.68284
2.68223
2.68238
2.68333
2.68501
2.68725
2.68998
2.6933
2.69732
2.70203
2.70729
2.71309
2.71948
2.72648
2.73414
2.74251
2.75177
2.76229
2.77483
2.79017
2.8064
2.82028
2.83545
2.85768
2.8853
2.92232
2.9837
3.07403
3.17532
3.25117
3.26861
3.23452
3.20163
3.21882
3.28722
3.37809
3.4693
3.55517
3.63454
3.70135
3.75381
3.80829
3.88871
3.9893
4.06324
4.06959
4.01925
3.95344
3.40192
3.02878
3.07194
3.11647
3.15686
3.19164
3.22035
3.24281
3.25912
3.26962
3.27471
3.27492
3.27074
3.26281
3.25187
3.23826
3.22218
3.20417
3.18447
3.16352
3.14158
3.11902
3.09621
3.07379
3.05243
3.03218
3.01263
2.99362
2.97524
2.95761
2.94079
2.92491
2.91024
2.897
2.8851
2.87428
2.86432
2.85511
2.84664
2.83893
2.83195
2.82583
2.82062
2.81628
2.81278
2.8101
2.80813
2.80686
2.80633
2.80641
2.807
2.80813
2.80981
2.81199
2.81455
2.81746
2.82075
2.82442
2.82851
2.83306
2.83809
2.84366
2.8498
2.85658
2.86402
2.87217
2.88108
2.89083
2.90164
2.9141
2.92923
2.94604
2.96071
2.9748
2.99539
3.02235
3.0563
3.11141
3.19677
3.29793
3.37977
3.40638
3.37687
3.33982
3.35065
3.41789
3.51118
3.60322
3.68699
3.76306
3.82628
3.87493
3.92682
4.00789
4.10908
4.17456
4.16242
4.0983
4.036
3.4232
3.14058
3.17787
3.20768
3.23412
3.25592
3.27277
3.28464
3.29175
3.29434
3.29284
3.28766
3.27927
3.26844
3.2563
3.2432
3.22877
3.21321
3.19693
3.18016
3.16301
3.14576
3.12867
3.11254
3.09832
3.08566
3.07358
3.06181
3.05039
3.03934
3.02871
3.01866
3.00947
3.00146
2.99445
2.98804
2.98202
2.97626
2.97075
2.96556
2.96064
2.95609
2.952
2.94847
2.94556
2.94321
2.94141
2.94017
2.93947
2.93927
2.93952
2.94021
2.94127
2.94274
2.94467
2.94707
2.94995
2.95332
2.9572
2.96158
2.96649
2.97198
2.97805
2.98475
2.99212
3.00022
3.00908
3.01877
3.02949
3.04172
3.05647
3.07359
3.0893
3.10303
3.12214
3.14882
3.1815
3.23213
3.31357
3.4155
3.50384
3.53986
3.51594
3.47677
3.48325
3.55081
3.6475
3.74133
3.82452
3.89961
3.96231
4.01047
4.0636
4.14978
4.25523
4.31283
4.27996
4.20006
4.14129
3.52781
3.23072
3.30634
3.32727
3.34464
3.35778
3.36673
3.37171
3.3731
3.37119
3.36644
3.35924
3.34988
3.33919
3.32876
3.31868
3.30809
3.29695
3.28554
3.27401
3.26228
3.25048
3.23882
3.22832
3.21987
3.21261
3.20542
3.19818
3.19085
3.18344
3.17605
3.16876
3.1618
3.15549
3.14987
3.14455
3.13925
3.13389
3.12846
3.12296
3.11744
3.11191
3.10642
3.10109
3.09602
3.09138
3.08737
3.08415
3.08176
3.08019
3.0794
3.07928
3.07971
3.08069
3.08222
3.08428
3.08691
3.09011
3.09382
3.09809
3.10296
3.10844
3.1145
3.12122
3.12866
3.13681
3.14574
3.15552
3.16632
3.17846
3.19291
3.21016
3.22699
3.2409
3.25846
3.28449
3.31646
3.36294
3.43951
3.54075
3.63456
3.68006
3.66308
3.62308
3.62504
3.69178
3.79078
3.88558
3.96791
4.04211
4.10442
4.15201
4.20575
4.29618
4.40483
4.45404
4.40136
4.30734
4.253
3.73198
3.25499
3.4549
3.47346
3.48627
3.49497
3.49989
3.50162
3.50064
3.49735
3.4923
3.48577
3.47794
3.46965
3.46244
3.45614
3.44964
3.44292
3.43606
3.42909
3.42182
3.41436
3.40676
3.39983
3.39435
3.38939
3.38401
3.37823
3.37204
3.36547
3.35856
3.35135
3.34383
3.33599
3.32792
3.31976
3.31157
3.30344
3.29539
3.28749
3.27976
3.27225
3.26499
3.25797
3.25124
3.24495
3.23929
3.23448
3.23069
3.22792
3.22612
3.22518
3.22503
3.22554
3.22663
3.22837
3.23073
3.23369
3.23726
3.2415
3.24636
3.25183
3.25794
3.26472
3.27224
3.28052
3.28955
3.29945
3.31034
3.32248
3.33672
3.35397
3.37188
3.38651
3.40271
3.42767
3.45941
3.50266
3.57398
3.6735
3.77186
3.82673
3.81775
3.77849
3.77648
3.84175
3.94217
4.03744
4.11895
4.19286
4.25554
4.3032
4.35786
4.45237
4.56371
4.60385
4.53161
4.42454
4.3748
4.06268
3.18131
3.61929
3.6429
3.6546
3.66254
3.66679
3.66825
3.66763
3.66534
3.66192
3.65768
3.65269
3.64762
3.64365
3.64042
3.63704
3.63342
3.62953
3.62538
3.62075
3.61563
3.60999
3.60365
3.59641
3.58851
3.58011
3.57129
3.56213
3.55269
3.54301
3.53316
3.52318
3.51318
3.50324
3.49331
3.48348
3.47384
3.46433
3.45503
3.44599
3.43725
3.42878
3.42056
3.41269
3.4052
3.39824
3.39207
3.38693
3.38293
3.38009
3.37834
3.37757
3.3776
3.37835
3.37976
3.38181
3.38456
3.38804
3.39221
3.39701
3.40251
3.4087
3.41559
3.42319
3.43157
3.44075
3.4508
3.46185
3.47409
3.4882
3.50533
3.5241
3.53987
3.5551
3.57861
3.61022
3.65113
3.71708
3.81367
3.91546
3.97941
3.97941
3.9425
3.93706
4.00005
4.10073
4.19587
4.27682
4.35106
4.4147
4.46274
4.51835
4.61659
4.72958
4.75989
4.66919
4.55091
4.5059
4.43789
3.08937
3.79401
3.82991
3.84248
3.85204
3.85791
3.86104
3.86228
3.86222
3.8613
3.85976
3.85775
3.85537
3.85237
3.84871
3.84459
3.84
3.83482
3.82909
3.82277
3.81581
3.80822
3.80009
3.79143
3.78227
3.77259
3.76247
3.75197
3.74116
3.73008
3.71883
3.70748
3.69605
3.68462
3.67329
3.66209
3.65104
3.64021
3.62962
3.61932
3.60937
3.59976
3.59047
3.58158
3.57308
3.565
3.5576
3.55119
3.54599
3.54205
3.53937
3.53792
3.53743
3.53774
3.53883
3.54065
3.54316
3.54644
3.55049
3.55527
3.56081
3.56705
3.57401
3.58175
3.59026
3.59962
3.60988
3.62109
3.63346
3.64751
3.66441
3.68383
3.70104
3.71585
3.73766
3.76896
3.80841
3.8693
3.96187
4.0659
4.13849
4.14825
4.11515
4.10698
4.16695
4.2667
4.36114
4.44184
4.5171
4.58228
4.63108
4.6878
4.78948
4.90319
4.92266
4.81479
4.68745
4.64645
4.76752
3.06968
3.97277
4.02063
4.03437
4.04596
4.05366
4.05831
4.06081
4.06176
4.06161
4.0606
4.0589
4.05668
4.05395
4.05072
4.04684
4.04241
4.03719
4.0313
4.02476
4.01741
4.00935
4.00057
3.99109
3.98098
3.97029
3.95907
3.94744
3.93549
3.92326
3.9108
3.89822
3.8856
3.87297
3.86044
3.84804
3.83583
3.82387
3.81218
3.80075
3.78968
3.77903
3.76874
3.75886
3.74937
3.74028
3.73175
3.72414
3.71773
3.71264
3.70891
3.70654
3.70544
3.7053
3.70597
3.7075
3.70982
3.7129
3.71679
3.7215
3.72703
3.73334
3.74042
3.74827
3.75693
3.76647
3.77692
3.78832
3.8009
3.81504
3.83176
3.85151
3.87019
3.88526
3.90523
3.93581
3.97453
4.03095
4.11862
4.22345
4.30399
4.3242
4.29647
4.2865
4.34289
4.44045
4.5337
4.61463
4.69152
4.75866
4.80856
4.86639
4.97101
5.08393
5.09153
4.96839
4.83468
4.797
5.07471
3.10088
4.15909
4.21761
4.23139
4.24383
4.25239
4.25785
4.26107
4.26273
4.26337
4.26314
4.26219
4.26069
4.25853
4.25571
4.25216
4.24788
4.24285
4.23699
4.23035
4.22282
4.21446
4.20536
4.19546
4.18483
4.17356
4.16172
4.14939
4.13665
4.12359
4.11024
4.09673
4.08318
4.06959
4.05603
4.04258
4.02932
4.01632
4.00359
3.99118
3.97908
3.96736
3.95607
3.9452
3.93474
3.92474
3.91517
3.90634
3.89862
3.89226
3.88739
3.88403
3.8821
3.8814
3.88168
3.88285
3.88491
3.88777
3.8915
3.89614
3.90162
3.90794
3.91512
3.92312
3.93191
3.94164
3.95231
3.96397
3.97678
3.99104
4.00761
4.02747
4.04759
4.06353
4.08184
4.11116
4.14956
4.20243
4.28463
4.38877
4.47638
4.50742
4.48633
4.47551
4.52794
4.62225
4.71372
4.79519
4.87441
4.94398
4.99517
5.05426
5.16164
5.27249
5.26704
5.13079
4.99333
4.95781
5.37058
3.17026
4.3531
4.42063
4.43383
4.44642
4.45521
4.46088
4.46442
4.46655
4.46766
4.46803
4.46772
4.46684
4.46536
4.46323
4.46039
4.45668
4.45214
4.44676
4.44047
4.43322
4.42506
4.41602
4.40613
4.39537
4.38388
4.37176
4.35909
4.34589
4.33224
4.31828
4.30408
4.28976
4.27535
4.2609
4.24654
4.23233
4.21837
4.20468
4.19127
4.17812
4.16535
4.15306
4.14121
4.12975
4.11881
4.10828
4.09834
4.08934
4.08163
4.07548
4.07094
4.068
4.06657
4.06636
4.06711
4.06885
4.07153
4.07508
4.07949
4.08488
4.09127
4.09852
4.10661
4.11563
4.12558
4.13647
4.14839
4.16144
4.17588
4.19239
4.21219
4.2335
4.25085
4.26799
4.2955
4.33362
4.38398
4.46055
4.56245
4.65581
4.6979
4.68494
4.67443
4.72268
4.81274
4.90189
4.98432
5.06645
5.13883
5.19151
5.25187
5.36153
5.4686
5.449
5.30205
5.16372
5.12934
5.65601
3.27331
4.55543
4.63006
4.64203
4.65398
4.66226
4.6677
4.67122
4.67345
4.67491
4.67592
4.67636
4.67631
4.67578
4.67455
4.67264
4.6699
4.66631
4.66177
4.65625
4.64965
4.64206
4.6335
4.62398
4.6135
4.60215
4.59009
4.57728
4.56387
4.54994
4.53562
4.52089
4.50593
4.4909
4.47573
4.46056
4.44552
4.43064
4.41597
4.40162
4.38753
4.37378
4.36043
4.34754
4.33509
4.32313
4.31167
4.30062
4.29029
4.28119
4.27366
4.26783
4.26375
4.26138
4.26049
4.26081
4.26217
4.26451
4.26788
4.27215
4.27739
4.28374
4.29108
4.29932
4.30848
4.3186
4.32972
4.34191
4.3552
4.36985
4.38644
4.40616
4.42838
4.44751
4.46405
4.48944
4.52704
4.57578
4.64706
4.74538
4.84299
4.89599
4.89229
4.88321
4.92742
5.01251
5.09859
5.18203
5.26762
5.34305
5.39748
5.45947
5.57116
5.6728
5.63803
5.48314
5.34653
5.31206
5.93642
3.40833
4.76654
4.84616
4.85604
4.8666
4.87384
4.87847
4.88162
4.88398
4.88577
4.88731
4.88857
4.88954
4.89017
4.89024
4.8897
4.88831
4.88602
4.88269
4.8783
4.87285
4.86628
4.85857
4.84975
4.83985
4.82897
4.81723
4.80463
4.79131
4.77732
4.76278
4.74781
4.73245
4.71687
4.70109
4.68524
4.66946
4.65376
4.63818
4.62286
4.60785
4.59315
4.57876
4.56479
4.55128
4.53825
4.52577
4.5137
4.50218
4.49166
4.48264
4.47537
4.46994
4.4664
4.46468
4.46438
4.46531
4.46736
4.4704
4.47448
4.47959
4.48581
4.49315
4.50152
4.51088
4.52119
4.53251
4.54494
4.55858
4.57354
4.59022
4.6098
4.6326
4.65364
4.6704
4.69349
4.73
4.77789
4.84461
4.93815
5.03818
5.10167
5.10846
5.10218
5.14266
5.2222
5.30466
5.3891
5.47849
5.5575
5.61406
5.67775
5.7909
5.88531
5.83459
5.67442
5.54173
5.50633
6.21091
3.57206
4.98645
5.06897
5.07599
5.08441
5.08996
5.09344
5.09602
5.09826
5.10035
5.10262
5.10498
5.1072
5.10935
5.11102
5.11204
5.11241
5.11187
5.11013
5.10731
5.10335
5.09815
5.09166
5.08389
5.07498
5.06493
5.0538
5.04169
5.02868
5.01487
5.00039
4.9853
4.96968
4.95376
4.93755
4.92111
4.90468
4.88818
4.87177
4.85557
4.83955
4.82387
4.80854
4.7935
4.77892
4.76488
4.7513
4.73809
4.72548
4.71363
4.70304
4.69417
4.68726
4.68241
4.67955
4.67845
4.67881
4.68037
4.68311
4.687
4.69194
4.69802
4.70531
4.71371
4.7232
4.73376
4.74536
4.75806
4.77198
4.78719
4.80407
4.82365
4.84674
4.86957
4.88738
4.9085
4.94326
4.99056
5.05383
5.14207
5.24254
5.31537
5.33341
5.33123
5.36868
5.44251
5.52051
5.60562
5.69912
5.78199
5.84097
5.90678
6.02117
6.10659
6.03919
5.87658
5.75012
5.71295
6.48192
3.76535
5.21549
5.29864
5.30203
5.30754
5.31085
5.31279
5.31448
5.31652
5.31905
5.32221
5.32576
5.32954
5.33346
5.3371
5.34027
5.34267
5.34412
5.34446
5.34364
5.34151
5.33805
5.33314
5.32689
5.31935
5.31038
5.30017
5.28886
5.27642
5.26302
5.24878
5.23385
5.21827
5.20214
5.1856
5.16866
5.15166
5.13455
5.11734
5.10026
5.0834
5.06675
5.0504
5.03435
5.01869
5.00345
4.98871
4.97446
4.9607
4.94757
4.93545
4.92489
4.9163
4.90989
4.90574
4.9036
4.90321
4.90426
4.90653
4.91012
4.91489
4.92081
4.92795
4.93635
4.94598
4.95672
4.96856
4.98156
4.99579
5.01134
5.02853
5.0481
5.07126
5.0957
5.11519
5.13482
5.16735
5.21401
5.27478
5.35759
5.45657
5.53732
5.56728
5.5705
5.6057
5.6741
5.74708
5.83214
5.92994
6.01729
6.07915
6.14736
6.26249
6.33712
6.25276
6.09003
5.97118
5.93191
6.75829
3.97958
5.45361
5.53539
5.53422
5.53605
5.53657
5.53669
5.53726
5.53906
5.54215
5.54633
5.55151
5.55715
5.56318
5.56911
5.57458
5.57945
5.5834
5.58619
5.58776
5.58782
5.58642
5.58351
5.57904
5.57313
5.56566
5.55673
5.54647
5.53493
5.5223
5.50857
5.49398
5.47851
5.46231
5.44568
5.4285
5.41096
5.39322
5.37538