/*--------------------------------*- C++ -*----------------------------------*\
  =========                 |
  \\      /  F ield         | OpenFOAM: The Open Source CFD Toolbox
   \\    /   O peration     | Website:  https://openfoam.org
    \\  /    A nd           | Version:  9
     \\/     M anipulation  |
\*---------------------------------------------------------------------------*/
FoamFile
{
    format      ascii;
    class       volScalarField;
    location    "750";
    object      p;
}
// * * * * * * * * * * * * * * * * * * * * * * * * * * * * * * * * * * * * * //

dimensions      [0 2 -2 0 0 0 0];

internalField   nonuniform List<scalar> 
13354
(
-0.0163636
-0.000902277
0.0157289
0.0334395
0.0517365
0.0695165
0.0853585
0.0981495
0.107406
0.114037
0.119099
0.123616
0.125613
0.00298409
0.0192238
0.0360487
0.0532677
0.0705862
0.0872654
0.102338
0.115067
0.125227
0.133143
0.139178
0.143083
0.143377
0.0135141
0.0299507
0.0472355
0.0648919
0.0824256
0.0992071
0.114632
0.128289
0.140182
0.149975
0.157278
0.161038
0.160604
0.0274253
0.0434542
0.0603477
0.0777052
0.0950391
0.11182
0.127499
0.141702
0.15429
0.164414
0.17117
0.174413
0.173346
0.0383687
0.0535578
0.0695294
0.0860595
0.102843
0.119363
0.135111
0.149718
0.162827
0.173289
0.179952
0.18324
0.181524
0.0445993
0.0588636
0.0739878
0.0897288
0.105813
0.121738
0.13715
0.151803
0.16532
0.176451
0.184017
0.188166
0.186706
0.0480327
0.061534
0.0759076
0.0909736
0.106284
0.121344
0.136085
0.150434
0.164045
0.175662
0.184322
0.189541
0.188862
0.049776
0.0625699
0.0762991
0.0906339
0.105011
0.119122
0.133141
0.147014
0.160412
0.17215
0.181556
0.187532
0.187869
0.0499775
0.0620911
0.0751061
0.0885333
0.101895
0.115104
0.128415
0.141746
0.154766
0.166416
0.176268
0.182843
0.184554
0.0488509
0.0601883
0.0723415
0.0847857
0.0971636
0.109498
0.122081
0.134842
0.147425
0.158963
0.16915
0.176509
0.179763
0.0466566
0.0571196
0.0683764
0.0798695
0.0912717
0.102744
0.114625
0.12682
0.138944
0.150348
0.160767
0.169113
0.173846
0.043484
0.0531379
0.0635689
0.074107
0.0845652
0.0952572
0.106507
0.118156
0.129818
0.141006
0.15153
0.160741
0.166833
0.039612
0.0485389
0.0580735
0.0676082
0.0771993
0.087254
0.0979782
0.109111
0.120315
0.131208
0.141737
0.151448
0.158895
0.0352792
0.0433629
0.0519019
0.0605282
0.0694221
0.0789227
0.0891146
0.0997166
0.110459
0.121029
0.131501
0.141384
0.150058
0.0304854
0.0377035
0.0453518
0.0531928
0.061413
0.0702861
0.0798607
0.0898767
0.100154
0.110365
0.120728
0.130548
0.140115
0.0254591
0.0318369
0.0385896
0.0455915
0.0530556
0.0612059
0.0700863
0.0794652
0.0892328
0.0990271
0.109196
0.118791
0.128895
0.019915
0.0254663
0.0313776
0.0375909
0.0443014
0.0516897
0.0598072
0.0684625
0.0776199
0.0868903
0.0967201
0.105944
0.116273
0.0141105
0.0188656
0.0239599
0.0293728
0.0352909
0.0418689
0.0491619
0.0570015
0.0654135
0.0740088
0.0833075
0.0919975
0.10225
0.00816057
0.0119875
0.0162092
0.0208057
0.0259036
0.0316148
0.0380102
0.0449715
0.0525684
0.0604053
0.0690617
0.0771086
0.0870414
0.0020546
0.00496191
0.00832958
0.0121114
0.0163661
0.0211659
0.0265939
0.0325837
0.0392594
0.0462378
0.0541225
0.0614458
0.0708823
-0.00399619
-0.00203901
0.000436692
0.00337013
0.00677681
0.0107206
0.0152605
0.0203095
0.0260138
0.0320458
0.0390347
0.0455646
0.0543418
-0.00966274
-0.00865778
-0.00713689
-0.00515757
-0.00271546
0.000261488
0.00385457
0.00801161
0.012864
0.0181033
0.0243079
0.0301192
0.0381712
-0.0150221
-0.0148951
-0.0142114
-0.0130458
-0.0114711
-0.00943901
-0.00683731
-0.00365055
0.000269428
0.00467324
0.010109
0.0152947
0.0227271
-0.0196459
-0.020412
-0.0206936
-0.0204567
-0.0197121
-0.0183955
-0.0164483
-0.0139419
-0.010815
-0.00721412
-0.00262604
0.00190107
0.00862103
-0.0233315
-0.0246804
-0.0256548
-0.0262332
-0.0263305
-0.0258424
-0.0246631
-0.022815
-0.0202515
-0.0171014
-0.0130886
-0.00902486
-0.00303907
-0.0254835
-0.0274992
-0.0290898
-0.0301327
-0.0305715
-0.0305047
-0.0299273
-0.0287618
-0.0269034
-0.0243673
-0.0209832
-0.017265
-0.0118713
-0.0252354
-0.0275483
-0.0295607
-0.0310854
-0.0319999
-0.0323256
-0.0320507
-0.0311969
-0.0298334
-0.0279413
-0.0253552
-0.0222334
-0.017776
-0.0225215
-0.0249685
-0.0269905
-0.02856
-0.0297439
-0.0305231
-0.0307768
-0.0304736
-0.0296836
-0.0283998
-0.0264942
-0.0239782
-0.0206116
-0.0170609
-0.0195637
-0.0217429
-0.0235295
-0.0249728
-0.0260457
-0.026659
-0.0267975
-0.0265166
-0.0257945
-0.0245113
-0.0227139
-0.0205173
-0.0102266
-0.0126584
-0.0148125
-0.0166553
-0.0182078
-0.0194417
-0.02031
-0.0208163
-0.0209992
-0.0208116
-0.0201527
-0.0191634
-0.0180591
-0.0027542
-0.00499338
-0.00702287
-0.00883144
-0.0104224
-0.011773
-0.0128592
-0.0136905
-0.014285
-0.0145847
-0.0145205
-0.0142932
-0.0140808
0.00451835
0.0024898
0.000599273
-0.00115168
-0.00275781
-0.00420088
-0.00546612
-0.00655941
-0.00748354
-0.00818228
-0.00861666
-0.00899803
-0.00942912
0.0108147
0.00897584
0.00721321
0.00552857
0.00392961
0.00243101
0.00104693
-0.000221943
-0.00136993
-0.00235063
-0.00314477
-0.00394041
-0.00477983
0.015654
0.0139844
0.0123479
0.0107477
0.00918983
0.00768991
0.0062615
0.00491123
0.00364939
0.00251015
0.00150101
0.000470675
-0.000587506
0.0188793
0.017377
0.0158796
0.0143896
0.0129149
0.0114712
0.0100713
0.00872571
0.00744595
0.00625585
0.00515694
0.00403407
0.00289751
0.0218862
0.0205772
0.0192524
0.0179121
0.0165615
0.01521
0.0138718
0.0125609
0.0112876
0.0100635
0.00890447
0.00780991
0.00669519
0.00557639
0.0239904
0.0245722
0.0253395
0.0256956
0.0257122
0.0250308
0.0241769
0.0231663
0.0220931
0.0209823
0.0198418
0.0186746
0.0174866
0.0162879
0.0150915
0.0139109
0.012756
0.0116367
0.0105635
0.00953539
0.00849176
0.00744926
0.022701
0.0231775
0.0237808
0.0241189
0.0241982
0.0236953
0.023024
0.0222079
0.0213283
0.0204038
0.0194446
0.0184545
0.0174389
0.0164075
0.0153708
0.0143414
0.0133288
0.0123409
0.0113849
0.0104594
0.00952243
0.00858875
0.0210428
0.0214056
0.0218479
0.0221283
0.0222161
0.0218259
0.0212899
0.0206346
0.0199178
0.0191583
0.0183656
0.0175431
0.0166958
0.0158297
0.0149543
0.0140803
0.0132158
0.0123677
0.0115405
0.0107337
0.00991795
0.00910613
0.0191783
0.0194365
0.0197377
0.0199447
0.0200042
0.0196885
0.0192569
0.0187241
0.0181386
0.0175181
0.0168703
0.0161981
0.0155032
0.01479
0.0140656
0.0133387
0.0126159
0.0119033
0.011203
0.0105159
0.00982163
0.00913129
0.0172378
0.0174085
0.0175972
0.017723
0.0177468
0.0174875
0.0171282
0.0166872
0.0162062
0.0156988
0.0151722
0.0146268
0.0140632
0.0134837
0.0128929
0.0122976
0.0117025
0.0111128
0.0105296
0.0099547
0.00937352
0.00879628
0.0153166
0.0154203
0.0155259
0.0155828
0.0155761
0.0153526
0.0150458
0.0146771
0.0142767
0.013859
0.0134285
0.0129859
0.0125305
0.0120629
0.0115856
0.011103
0.010618
0.0101351
0.00965479
0.00917937
0.00869807
0.00822127
0.0133546
0.013478
0.0135338
0.0135824
0.0135945
0.0135611
0.0133647
0.0131021
0.0127887
0.0124511
0.0121018
0.0117459
0.011384
0.0110148
0.0106379
0.0102534
0.00986391
0.00947076
0.00907786
0.00868486
0.00829462
0.00789858
0.00750762
0.0116838
0.0117596
0.0117836
0.0117963
0.0117822
0.0117324
0.0115632
0.0113364
0.0110673
0.0107789
0.0104828
0.0101849
0.00988568
0.00958441
0.00927932
0.00896946
0.0086555
0.00833764
0.00801891
0.00769827
0.00737904
0.0070538
0.00673404
0.0101374
0.0101806
0.0101849
0.010177
0.0101497
0.0100929
0.00994743
0.00975251
0.00952253
0.00927525
0.00902313
0.00877118
0.00852164
0.00827352
0.00802522
0.00777453
0.00752134
0.00726453
0.00700639
0.00674542
0.00648511
0.00621874
0.00595807
0.00872749
0.00874947
0.00874281
0.00872465
0.00869259
0.00863669
0.00851454
0.00835164
0.00815739
0.00794749
0.0077325
0.00751855
0.00730842
0.007102
0.00689782
0.00669364
0.00648847
0.0062805
0.00607121
0.00585875
0.00564661
0.0054283
0.00521593
0.00745917
0.0074693
0.0074589
0.00743898
0.00740941
0.00736147
0.00726379
0.00713145
0.00697126
0.00679512
0.00661274
0.00643043
0.00625194
0.00607794
0.00590777
0.00573937
0.00557156
0.00540197
0.00523163
0.00505805
0.00488468
0.00470525
0.00453184
0.00632844
0.00633301
0.00632331
0.0063063
0.00628282
0.00624586
0.00617212
0.00606883
0.00594069
0.00579616
0.00564359
0.00548929
0.00533759
0.00519007
0.00504701
0.00490675
0.00476835
0.00462928
0.00449014
0.00434793
0.00420613
0.00405827
0.00391644
0.00532728
0.00533013
0.0053234
0.0053114
0.00529532
0.00526972
0.00521751
0.00514084
0.00504207
0.00492716
0.00480253
0.00467418
0.00454646
0.00442176
0.0043012
0.0041838
0.00406909
0.00395457
0.00384061
0.00372409
0.00360815
0.00348637
0.00337041
0.00444653
0.00445003
0.00444731
0.00444109
0.00443253
0.00441754
0.00438368
0.00433046
0.00425815
0.00417027
0.00407179
0.00396753
0.00386191
0.00375757
0.00365641
0.00355812
0.00346281
0.00336823
0.0032749
0.00317939
0.00308484
0.00298465
0.00289004
0.00367719
0.00368258
0.00368421
0.00368373
0.00368214
0.00367643
0.00365765
0.00362412
0.00357489
0.00351135
0.0034368
0.00335505
0.00326994
0.00318431
0.00310038
0.00301854
0.00293946
0.00286135
0.00278484
0.0027067
0.00262976
0.00254764
0.00247078
0.00301003
0.00301801
0.00302391
0.00302873
0.0030333
0.00303541
0.00302876
0.0030112
0.00298125
0.00293892
0.00288584
0.00282469
0.00275858
0.00269017
0.00262191
0.00255455
0.00248932
0.00242485
0.00236227
0.00229833
0.00223595
0.00216887
0.00210672
0.00243597
0.00244671
0.00245651
0.002466
0.00247579
0.0024843
0.00248709
0.00248204
0.00246758
0.00244297
0.00240869
0.00236609
0.00231755
0.00226516
0.00221138
0.00215721
0.00210418
0.00205151
0.00200054
0.00194851
0.00189815
0.0018436
0.0017937
0.00194551
0.00195901
0.00197231
0.00198579
0.00199988
0.00201348
0.00202347
0.002028
0.00202556
0.00201512
0.00199648
0.00197012
0.00193739
0.00189984
0.00185947
0.0018174
0.0017753
0.00173277
0.00169173
0.0016496
0.0016092
0.00156522
0.00152539
0.00152996
0.00154597
0.00156225
0.00157902
0.00159656
0.00161412
0.00162952
0.00164122
0.00164789
0.00164846
0.00164239
0.00162959
0.00161071
0.00158657
0.00155874
0.00152804
0.00149617
0.00146315
0.00143089
0.00139749
0.00136564
0.00133062
0.00129923
0.00117971
0.00119794
0.00121668
0.00123605
0.00125624
0.00127673
0.00129599
0.00131281
0.00132606
0.00133478
0.0013383
0.00133623
0.00132874
0.00131616
0.00129945
0.00127922
0.0012568
0.00123228
0.00120789
0.00118198
0.00115726
0.00112983
0.0011055
0.000887826
0.000907769
0.000928361
0.000949634
0.000971708
0.000994209
0.00101609
0.0010364
0.00105425
0.00106881
0.0010794
0.00108555
0.00108713
0.00108413
0.0010771
0.00106632
0.00105282
0.00103674
0.00101987
0.00100115
0.000983134
0.00096254
0.000944358
0.000644512
0.000665884
0.000687901
0.000710553
0.00073391
0.000757716
0.00078123
0.000803744
0.000824577
0.000843027
0.000858524
0.000870549
0.00087888
0.000883316
0.000884082
0.000881229
0.000875458
0.000866803
0.000856737
0.000844332
0.000831964
0.000817187
0.000804269
0.00042218
0.000443783
0.000466016
0.000488848
0.000512282
0.00053633
0.000560811
0.000585217
0.000609021
0.000631689
0.000652679
0.000671495
0.000687696
0.000700985
0.000711104
0.000718076
0.000721814
0.000722733
0.00072076
0.000716986
0.000710756
0.000704014
0.000694804
0.000686589
0.00025493
0.000276898
0.000299426
0.00032248
0.000346037
0.000370089
0.000394505
0.000418931
0.000442979
0.000466251
0.000488326
0.00050881
0.00052733
0.000543613
0.00055739
0.000568577
0.000577022
0.000582931
0.000586164
0.000587456
0.000586338
0.000584306
0.000579917
0.000575886
9.59386e-05
0.000117345
0.00013924
0.000161611
0.000184415
0.000207623
0.000231209
0.000255073
0.000278974
0.000302626
0.000325733
0.000347982
0.000369065
0.000388681
0.00040659
0.000422552
0.000436444
0.000448083
0.000457541
0.000464645
0.000469846
0.000472799
0.000474539
0.000474135
0.000473571
-1.58826e-05
5.32462e-06
2.69128e-05
4.88608e-05
7.11263e-05
9.36774e-05
0.000116486
0.000139474
0.000162474
0.000185281
0.000207675
0.000229425
0.000250297
0.000270058
0.000288517
0.000305478
0.000320814
0.000334347
0.00034607
0.00035581
0.000363807
0.000369786
0.000374466
0.000377162
0.000379432
-0.000103438
-8.27538e-05
-6.17689e-05
-4.051e-05
-1.90184e-05
2.67366e-06
2.45329e-05
4.65036e-05
6.84608e-05
9.02589e-05
0.000111738
0.000132729
0.000153057
0.000172547
0.00019105
0.000208409
0.000224512
0.000239211
0.000252465
0.000264113
0.000274266
0.0002827
0.000289848
0.000295251
0.000299914
-0.000173017
-0.000152974
-0.000132727
-0.000112302
-9.17422e-05
-7.10793e-05
-5.03438e-05
-2.95809e-05
-8.88155e-06
1.1656e-05
3.19102e-05
5.17643e-05
7.10901e-05
8.97601e-05
0.000107661
0.000124679
0.000140725
0.000155682
0.000169499
0.000182045
0.000193354
0.000203236
0.000211967
0.000219173
0.000225615
-0.000225461
-0.000206249
-0.000186907
-0.000167464
-0.000147962
-0.000128426
-0.000108889
-8.93871e-05
-6.99844e-05
-5.07511e-05
-3.17746e-05
-1.31389e-05
5.06568e-06
2.27466e-05
3.98246e-05
5.62199e-05
7.18633e-05
8.66717e-05
0.000100601
0.000113549
0.000125515
0.000136349
0.000146192
0.000154773
0.000162549
-0.000265036
-0.000246732
-0.000228375
-0.000209988
-0.000191614
-0.000173275
-0.000155001
-0.000136821
-0.000118782
-0.000100931
-8.33314e-05
-6.60387e-05
-4.91202e-05
-3.26329e-05
-1.66343e-05
-1.18133e-06
1.36817e-05
2.78986e-05
4.14326e-05
5.42117e-05
6.62249e-05
7.73504e-05
8.76755e-05
9.69683e-05
0.000105568
-0.00029267
-0.000275404
-0.000258146
-0.000240917
-0.000223753
-0.000206672
-0.0001897
-0.000172858
-0.000156181
-0.000139701
-0.000123463
-0.000107505
-9.18703e-05
-7.65994e-05
-6.1733e-05
-4.73027e-05
-3.33376e-05
-1.98748e-05
-6.93725e-06
5.42582e-06
1.72051e-05
2.83108e-05
3.87852e-05
4.84536e-05
5.75191e-05
-0.000311112
-0.000294894
-0.000278736
-0.000262654
-0.000246681
-0.000230832
-0.000215132
-0.000199594
-0.000184247
-0.00016911
-0.000154212
-0.00013958
-0.000125244
-0.000111227
-9.75538e-05
-8.4242e-05
-7.13083e-05
-5.8773e-05
-4.66468e-05
-3.49597e-05
-2.3716e-05
-1.29789e-05
-2.71918e-06
6.92259e-06
1.60954e-05
-0.000321401
-0.000306255
-0.000291209
-0.00027628
-0.000261492
-0.000246862
-0.000232409
-0.000218139
-0.000204076
-0.00019023
-0.000176622
-0.000163268
-0.000150187
-0.000137392
-0.000124895
-0.000112706
-0.00010083
-8.92772e-05
-7.80506e-05
-6.71625e-05
-5.66129e-05
-4.64394e-05
-3.6622e-05
-2.72636e-05
-1.8261e-05
-0.000325229
-0.000311156
-0.000297213
-0.000283415
-0.000269782
-0.000256328
-0.000243068
-0.000230004
-0.000217157
-0.000204531
-0.000192142
-0.000179995
-0.000168103
-0.000156471
-0.000145105
-0.000134006
-0.000123172
-0.000112602
-0.000102296
-9.22532e-05
-8.24684e-05
-7.29591e-05
-6.3712e-05
-5.47943e-05
-4.6142e-05
-0.000324012
-0.000310991
-0.000298127
-0.000285433
-0.000272926
-0.000260613
-0.000248509
-0.000236617
-0.000224948
-0.000213506
-0.000202294
-0.000191319
-0.000180584
-0.000170093
-0.000159841
-0.000149827
-0.000140045
-0.000130486
-0.000121144
-0.000112015
-0.000103085
-9.4364e-05
-8.58275e-05
-7.75289e-05
-6.93981e-05
-0.000318128
-0.000306139
-0.000294323
-0.000282689
-0.00027125
-0.000260011
-0.000248983
-0.000238171
-0.000227578
-0.000217207
-0.000207059
-0.000197137
-0.00018744
-0.000177967
-0.00016871
-0.000159666
-0.000150824
-0.000142177
-0.000133707
-0.00012541
-0.000117268
-0.00010928
-0.000101428
-9.37372e-05
-8.6173e-05
-0.00030948
-0.000298488
-0.000287682
-0.000277069
-0.000266658
-0.000256457
-0.000246472
-0.000236703
-0.000227154
-0.000217822
-0.00020871
-0.000199815
-0.000191131
-0.000182659
-0.000174387
-0.000166309
-0.000158413
-0.00015069
-0.000143121
-0.000135696
-0.000128397
-0.000121217
-0.000114133
-0.000107163
-0.000100253
-0.00029702
-0.000286973
-0.000277114
-0.000267449
-0.000257986
-0.000248728
-0.000239678
-0.000230838
-0.000222209
-0.000213787
-0.000205574
-0.000197564
-0.000189754
-0.000182139
-0.000174709
-0.000167455
-0.000160364
-0.000153424
-0.00014662
-0.000139936
-0.000133355
-0.000126865
-0.00012045
-0.000114105
-0.000107817
-0.000283255
-0.000274089
-0.000265115
-0.000256341
-0.000247771
-0.000239405
-0.000231246
-0.000223295
-0.000215551
-0.000208009
-0.000200669
-0.000193524
-0.000186569
-0.000179795
-0.000173195
-0.000166756
-0.00016047
-0.000154321
-0.000148296
-0.000142378
-0.00013655
-0.000130799
-0.000125102
-0.000119456
-0.000113824
-0.000266907
-0.00025859
-0.000250459
-0.000242525
-0.000234784
-0.000227238
-0.000219887
-0.000212733
-0.000205775
-0.000199004
-0.000192422
-0.000186022
-0.000179798
-0.000173741
-0.000167843
-0.000162092
-0.000156479
-0.00015099
-0.00014561
-0.000140323
-0.000135111
-0.00012996
-0.000124855
-0.000119777
-0.000114725
-0.000250647
-0.000243127
-0.000235794
-0.000228654
-0.000221703
-0.000214942
-0.000208372
-0.000201993
-0.000195799
-0.000189785
-0.00018395
-0.000178287
-0.000172789
-0.000167447
-0.000162253
-0.000157196
-0.000152266
-0.000147449
-0.00014273
-0.000138094
-0.000133526
-0.000129011
-0.000124528
-0.000120067
-0.000115599
-0.000231626
-0.000224812
-0.00021818
-0.00021173
-0.000205458
-0.000199367
-0.000193454
-0.000187719
-0.000182155
-0.000176762
-0.000171533
-0.000166464
-0.000161547
-0.000156773
-0.000152134
-0.00014762
-0.000143222
-0.000138926
-0.000134719
-0.000130586
-0.000126513
-0.000122484
-0.000118486
-0.0001145
-0.000110521
-0.000213581
-0.00020745
-0.000201492
-0.000195709
-0.000190097
-0.000184658
-0.000179388
-0.000174287
-0.000169349
-0.00016457
-0.000159945
-0.000155468
-0.000151132
-0.000146931
-0.000142853
-0.000138891
-0.000135037
-0.000131278
-0.0001276
-0.000123992
-0.000120439
-0.000116928
-0.000113441
-0.000109964
-0.000106478
-0.000194439
-0.0001889
-0.000183526
-0.000178316
-0.000173268
-0.000168382
-0.000163654
-0.000159082
-0.000154662
-0.000150389
-0.000146259
-0.000142266
-0.000138402
-0.000134663
-0.000131037
-0.000127518
-0.000124096
-0.000120761
-0.000117499
-0.000114299
-0.000111148
-0.000108034
-0.000104944
-0.000101857
-9.87758e-05
-0.000175893
-0.000170961
-0.000166186
-0.000161564
-0.000157093
-0.000152773
-0.000148598
-0.000144567
-0.000140675
-0.000136919
-0.000133294
-0.000129793
-0.000126411
-0.000123143
-0.000119979
-0.000116911
-0.000113932
-0.000111031
-0.000108199
-0.000105424
-0.000102694
-9.99974e-05
-9.73209e-05
-9.46503e-05
-9.19732e-05
-0.000157747
-0.000153315
-0.000149028
-0.000144882
-0.000140877
-0.000137013
-0.000133283
-0.000129686
-0.000126218
-0.000122875
-0.000119652
-0.000116544
-0.000113546
-0.000110651
-0.00010785
-0.000105138
-0.000102507
-9.99471e-05
-9.74501e-05
-9.50043e-05
-9.25992e-05
-9.02235e-05
-8.78683e-05
-8.5517e-05
-8.31668e-05
-0.000140529
-0.000136592
-0.00013279
-0.000129117
-0.000125575
-0.000122163
-0.000118874
-0.000115707
-0.000112657
-0.000109721
-0.000106895
-0.000104175
-0.000101553
-9.90247e-05
-9.65819e-05
-9.42198e-05
-9.19307e-05
-8.97064e-05
-8.75395e-05
-8.5419e-05
-8.33359e-05
-8.12799e-05
-7.92421e-05
-7.72079e-05
-7.51695e-05
-0.000123874
-0.000120403
-0.000117057
-0.000113829
-0.000110722
-0.000107731
-0.000104853
-0.000102084
-9.94215e-05
-9.68617e-05
-9.44016e-05
-9.20359e-05
-8.97581e-05
-8.75643e-05
-8.54477e-05
-8.34027e-05
-8.14235e-05
-7.95025e-05
-7.7632e-05
-7.58024e-05
-7.40061e-05
-7.22348e-05
-7.04783e-05
-6.87267e-05
-6.69672e-05
-0.000107124
-0.000104023
-0.000101036
-9.81574e-05
-9.53885e-05
-9.27259e-05
-9.01658e-05
-8.77063e-05
-8.53441e-05
-8.30752e-05
-8.08962e-05
-7.88032e-05
-7.67901e-05
-7.48538e-05
-7.29874e-05
-7.11859e-05
-6.94442e-05
-6.77553e-05
-6.61113e-05
-6.45049e-05
-6.29285e-05
-6.13748e-05
-5.98365e-05
-5.83002e-05
-5.67686e-05
-9.13485e-05
-8.8634e-05
-8.6023e-05
-8.35106e-05
-8.10973e-05
-7.8779e-05
-7.6552e-05
-7.4415e-05
-7.2365e-05
-7.03977e-05
-6.85102e-05
-6.67004e-05
-6.49616e-05
-6.32906e-05
-6.16824e-05
-6.01315e-05
-5.86335e-05
-5.71831e-05
-5.57731e-05
-5.43971e-05
-5.30485e-05
-5.17206e-05
-5.04045e-05
-4.90928e-05
-4.77764e-05
-7.64541e-05
-7.40652e-05
-7.1768e-05
-6.95606e-05
-6.7441e-05
-6.54071e-05
-6.34558e-05
-6.15851e-05
-5.97924e-05
-5.80741e-05
-5.64277e-05
-5.4851e-05
-5.33372e-05
-5.18843e-05
-5.04879e-05
-4.91424e-05
-4.78436e-05
-4.65875e-05
-4.53663e-05
-4.41752e-05
-4.30077e-05
-4.18568e-05
-4.07195e-05
-3.95832e-05
-3.84539e-05
-6.40631e-05
-6.20178e-05
-6.00536e-05
-5.81684e-05
-5.63608e-05
-5.46284e-05
-5.29688e-05
-5.13799e-05
-4.98596e-05
-4.84043e-05
-4.70123e-05
-4.56808e-05
-4.44047e-05
-4.31815e-05
-4.20079e-05
-4.08785e-05
-3.97906e-05
-3.87396e-05
-3.77193e-05
-3.67252e-05
-3.57524e-05
-3.47947e-05
-3.38471e-05
-3.29013e-05
-3.19529e-05
-5.10727e-05
-4.93124e-05
-4.76229e-05
-4.60027e-05
-4.44506e-05
-4.29643e-05
-4.15417e-05
-4.01808e-05
-3.88802e-05
-3.76361e-05
-3.64472e-05
-3.53118e-05
-3.42246e-05
-3.31829e-05
-3.21847e-05
-3.12251e-05
-3.03017e-05
-2.94101e-05
-2.85448e-05
-2.77017e-05
-2.68769e-05
-2.60651e-05
-2.52615e-05
-2.446e-05
-2.36571e-05
-3.69937e-05
-3.54937e-05
-3.4055e-05
-3.26781e-05
-3.13599e-05
-3.00991e-05
-2.88935e-05
-2.77416e-05
-2.6642e-05
-2.55919e-05
-2.45895e-05
-2.36343e-05
-2.27211e-05
-2.18472e-05
-2.10107e-05
-2.02085e-05
-1.9437e-05
-1.86928e-05
-1.79718e-05
-1.72699e-05
-1.65836e-05
-1.59085e-05
-1.52405e-05
-1.45742e-05
-1.39076e-05
-2.31522e-05
-2.18969e-05
-2.06945e-05
-1.95443e-05
-1.84438e-05
-1.73919e-05
-1.63876e-05
-1.54295e-05
-1.45166e-05
-1.36455e-05
-1.28164e-05
-1.20268e-05
-1.12736e-05
-1.05536e-05
-9.86513e-06
-9.20625e-06
-8.573e-06
-7.96232e-06
-7.37094e-06
-6.79574e-06
-6.23311e-06
-5.67954e-06
-5.13156e-06
-4.58445e-06
-4.03712e-06
-5.83013e-06
-4.79581e-06
-3.80718e-06
-2.86425e-06
-1.96347e-06
-1.10473e-06
-2.85998e-07
4.93085e-07
1.23441e-06
1.93941e-06
2.60851e-06
3.24415e-06
3.84941e-06
4.42578e-06
4.97567e-06
5.50021e-06
6.00338e-06
6.48726e-06
6.95507e-06
7.40902e-06
7.85265e-06
8.28902e-06
8.72047e-06
9.15099e-06
9.58187e-06
1.00111e-05
1.08314e-05
1.16157e-05
1.23641e-05
1.30784e-05
1.37587e-05
1.44065e-05
1.50227e-05
1.56077e-05
1.61628e-05
1.66882e-05
1.7187e-05
1.76612e-05
1.8112e-05
1.85402e-05
1.89488e-05
1.93401e-05
1.97163e-05
2.00795e-05
2.04315e-05
2.07757e-05
2.11146e-05
2.14496e-05
2.17847e-05
2.21203e-05
4.26111e-05
4.32252e-05
4.38061e-05
4.43541e-05
4.48723e-05
4.53591e-05
4.58179e-05
4.62497e-05
4.66536e-05
4.70314e-05
4.73841e-05
4.77123e-05
4.80195e-05
4.83072e-05
4.85765e-05
4.883e-05
4.90697e-05
4.92978e-05
4.9516e-05
4.97258e-05
4.9929e-05
5.01278e-05
5.03241e-05
5.0521e-05
5.07182e-05
4.40058e-05
4.43617e-05
4.47084e-05
4.50426e-05
4.53679e-05
4.56807e-05
4.5982e-05
4.62736e-05
4.65544e-05
4.6826e-05
4.70882e-05
4.73395e-05
4.75854e-05
4.78211e-05
4.80462e-05
4.8266e-05
4.84772e-05
4.86823e-05
4.88829e-05
4.90809e-05
4.9275e-05
4.94682e-05
4.96622e-05
4.98574e-05
5.00519e-05
0.000222538
0.00022267
0.000222714
0.000222687
0.000222589
0.000222427
0.000222204
0.000221929
0.000221608
0.000221243
0.00022083
0.000220385
0.000219915
0.00021942
0.000218911
0.000218391
0.00021787
0.000217345
0.000216815
0.000216289
0.000215763
0.000215233
0.0002147
0.000214167
0.000213633
-4.69054e-05
-4.8333e-05
-4.96589e-05
-5.09254e-05
-5.21137e-05
-5.32355e-05
-5.42697e-05
-5.52196e-05
-5.60619e-05
-5.68034e-05
-5.74198e-05
-5.79184e-05
-5.83186e-05
-5.86057e-05
-5.88029e-05
-5.89173e-05
-5.89819e-05
-5.89868e-05
-5.89264e-05
-5.88335e-05
-5.87024e-05
-5.85205e-05
-5.82944e-05
-5.80593e-05
-5.78212e-05
0.00191646
0.00192202
0.00192515
0.00192587
0.00192432
0.00192061
0.00191482
0.00190701
0.00189749
0.0018864
0.00187404
0.00186066
0.00184659
0.00183195
0.00181697
0.00180184
0.00178682
0.0017719
0.00175717
0.00174274
0.00172863
0.00171488
0.00170153
0.0016887
0.00167622
-0.00577423
-0.00580055
-0.00582351
-0.00584325
-0.00585977
-0.00587327
-0.00588408
-0.00589221
-0.00589778
-0.00590108
-0.00590235
-0.00590183
-0.0059
-0.00589718
-0.00589349
-0.00588898
-0.00588397
-0.00587863
-0.00587294
-0.00586685
-0.00586026
-0.00585349
-0.00584669
-0.00583801
-0.0058251
3.22356e-05
3.24982e-05
3.67128e-05
3.58221e-05
3.77077e-05
3.76007e-05
3.83454e-05
3.85263e-05
3.87793e-05
3.86371e-05
3.80728e-05
3.67962e-05
3.45813e-05
3.11391e-05
2.6198e-05
1.94931e-05
1.07847e-05
-1.32173e-07
-1.34161e-05
-2.9181e-05
-4.75015e-05
-6.84124e-05
-9.19273e-05
-0.000118037
-0.000146732
-0.000178
-0.000211845
-0.000248289
-0.000287387
-0.000329214
-0.000373872
-0.000421499
-0.000472271
-0.000526372
-0.000584001
-0.00064539
-0.000710739
-0.000780261
-0.000854145
-0.00093257
-0.00101566
-0.00110351
-0.00119617
-0.00129362
-0.00139586
-0.0015027
-0.00161404
-0.0017296
-0.00184916
-0.00197239
-0.00209888
-0.00222827
-0.00236008
-0.00249387
-0.00262918
-0.00276552
-0.00290236
-0.00303921
-0.00317559
-0.00331106
-0.00344515
-0.00357757
-0.00370782
-0.0038355
-0.00396038
-0.00408225
-0.00420081
-0.00431579
-0.00442716
-0.00453473
-0.00463834
-0.00473802
-0.00483376
-0.00492544
-0.00501306
-0.00509666
-0.00517629
-0.0052519
-0.00532336
-0.00539063
-0.00545357
-0.00551176
-0.00556471
-0.00561194
-0.00565281
-0.00568697
-0.00571455
-0.00573611
-0.00575236
-0.00576424
-0.00577301
-0.00577967
-0.00578491
-0.0057894
-0.00579365
-0.00579845
-0.00580428
-0.0058103
-0.00581534
6.16251e-05
5.50524e-05
5.81557e-05
5.31243e-05
5.29863e-05
5.03824e-05
4.93593e-05
4.78284e-05
4.68637e-05
4.60105e-05
4.55484e-05
4.54465e-05
4.58039e-05
4.66525e-05
4.80315e-05
4.99502e-05
5.23843e-05
5.52874e-05
5.85827e-05
6.21702e-05
6.59268e-05
6.9727e-05
7.34275e-05
7.69027e-05
8.00209e-05
8.26833e-05
8.48071e-05
8.63402e-05
8.7256e-05
8.75737e-05
8.73406e-05
8.6647e-05
8.5617e-05
8.44118e-05
8.32165e-05
8.22338e-05
8.16925e-05
8.18286e-05
8.28924e-05
8.51144e-05
8.87209e-05
9.39373e-05
0.000100957
0.000109963
0.000121076
0.000134446
0.000150122
0.000168187
0.000188625
0.000211478
0.00023664
0.00026406
0.000293677
0.000325302
0.000358864
0.000394154
0.000430968
0.000469211
0.000508655
0.000549111
0.000590403
0.000632289
0.000674613
0.000717199
0.000759925
0.000802598
0.000844999
0.00088706
0.000928659
0.000969633
0.00100987
0.0010494
0.00108797
0.00112551
0.00116209
0.00119755
0.00123183
0.00126484
0.00129656
0.00132694
0.00135583
0.00138314
0.00140888
0.00143288
0.00145509
0.00147557
0.00149441
0.00151175
0.00152779
0.00154295
0.00155737
0.00157124
0.00158467
0.00159785
0.00161086
0.00162376
0.00163672
0.00164999
0.00166337
0.000127389
0.000114672
0.000115711
0.000109025
0.000108133
0.00010463
0.000103029
0.000100815
9.91293e-05
9.73392e-05
9.56398e-05
9.38713e-05
9.20293e-05
9.00524e-05
8.79069e-05
8.5563e-05
8.29979e-05
8.01971e-05
7.71509e-05
7.38574e-05
7.03184e-05
6.65428e-05
6.25409e-05
5.83316e-05
5.39331e-05
4.93711e-05
4.46725e-05
3.98677e-05
3.4989e-05
3.00717e-05
2.51502e-05
2.02585e-05
1.54318e-05
1.07039e-05
6.10536e-06
1.66287e-06
-2.59782e-06
-6.65713e-06
-1.04977e-05
-1.41085e-05
-1.7481e-05
-2.06116e-05
-2.35035e-05
-2.61556e-05
-2.85725e-05
-3.07695e-05
-3.2756e-05
-3.45439e-05
-3.61506e-05
-3.75915e-05
-3.88748e-05
-4.00281e-05
-4.1066e-05
-4.19945e-05
-4.28365e-05
-4.3605e-05
-4.42987e-05
-4.49471e-05
-4.55526e-05
-4.61321e-05
-4.66804e-05
-4.72079e-05
-4.77099e-05
-4.82026e-05
-4.86957e-05
-4.91749e-05
-4.96386e-05
-5.0088e-05
-5.05276e-05
-5.09406e-05
-5.13254e-05
-5.1697e-05
-5.20228e-05
-5.2303e-05
-5.25629e-05
-5.27826e-05
-5.29491e-05
-5.30734e-05
-5.31517e-05
-5.31775e-05
-5.31472e-05
-5.30775e-05
-5.29783e-05
-5.28814e-05
-5.27976e-05
-5.27807e-05
-5.28509e-05
-5.30035e-05
-5.3238e-05
-5.35382e-05
-5.39131e-05
-5.43128e-05
-5.47323e-05
-5.51791e-05
-5.56402e-05
-5.60893e-05
-5.65281e-05
-5.69896e-05
-5.74648e-05
0.000177693
0.000163565
0.000163164
0.000154902
0.000152949
0.000148337
0.00014593
0.000142994
0.000140756
0.000138565
0.000136629
0.000134809
0.000133117
0.00013151
0.000129967
0.000128462
0.000126976
0.000125485
0.000123971
0.000122419
0.00012082
0.000119167
0.00011746
0.000115705
0.000113915
0.000112107
0.000110303
0.000108532
0.000106823
0.000105208
0.000103723
0.000102403
0.000101282
0.000100391
9.97595e-05
9.94106e-05
9.93646e-05
9.96396e-05
0.000100246
0.000101188
0.000102463
0.00010407
0.000105997
0.000108228
0.000110744
0.000113522
0.000116534
0.00011975
0.000123139
0.000126667
0.000130304
0.000134018
0.000137774
0.000141544
0.000145304
0.000149024
0.000152683
0.000156261
0.000159738
0.000163096
0.000166326
0.000169416
0.000172363
0.000175158
0.000177801
0.000180293
0.000182633
0.00018482
0.000186861
0.000188761
0.000190526
0.000192167
0.00019368
0.000195076
0.000196373
0.000197566
0.000198667
0.000199687
0.000200629
0.000201503
0.000202313
0.000203069
0.000203779
0.000204449
0.000205084
0.0002057
0.000206303
0.000206892
0.000207472
0.000208046
0.00020862
0.000209189
0.000209751
0.000210316
0.000210877
0.000211433
0.000211986
0.000212539
0.000213089
0.000228567
0.000213441
0.000212267
0.000203005
0.000200331
0.000194918
0.00019183
0.000188245
0.00018537
0.000182551
0.000179962
0.000177455
0.000175022
0.000172615
0.000170208
0.000167781
0.000165312
0.000162794
0.000160221
0.000157588
0.000154898
0.000152159
0.000149381
0.000146576
0.000143756
0.000140935
0.000138126
0.000135344
0.000132602
0.000129913
0.000127288
0.000124738
0.000122271
0.000119892
0.000117601
0.000115398
0.000113283
0.000111254
0.000109306
0.000107433
0.00010563
0.000103891
0.000102208
0.000100575
9.89833e-05
9.74287e-05
9.59049e-05
9.44066e-05
9.29301e-05
9.14729e-05
9.00321e-05
8.86059e-05
8.71949e-05
8.57982e-05
8.44152e-05
8.30484e-05
8.17025e-05
8.03766e-05
7.90729e-05
7.77883e-05
7.65265e-05
7.52852e-05
7.40684e-05
7.28758e-05
7.17082e-05
7.05671e-05
6.94556e-05
6.83727e-05
6.73175e-05
6.62915e-05
6.52991e-05
6.43392e-05
6.341e-05
6.25146e-05
6.16518e-05
6.08227e-05
6.00279e-05
5.92673e-05
5.85414e-05
5.78521e-05
5.71973e-05
5.65784e-05
5.59967e-05
5.54507e-05
5.49404e-05
5.44628e-05
5.4016e-05
5.35945e-05
5.31956e-05
5.28203e-05
5.24691e-05
5.21398e-05
5.18316e-05
5.1543e-05
5.12692e-05
5.10089e-05
5.07593e-05
5.05145e-05
5.02705e-05
0.000276181
0.000260382
0.000258717
0.000248723
0.000245487
0.000239478
0.000235832
0.000231756
0.000228396
0.000225145
0.000222135
0.000219233
0.000216415
0.000213638
0.000210866
0.000208076
0.000205243
0.000202346
0.00019938
0.000196335
0.000193203
0.000189992
0.000186705
0.000183346
0.00017992
0.000176438
0.00017291
0.000169346
0.000165758
0.000162159
0.00015856
0.000154974
0.000151414
0.00014789
0.000144407
0.000140979
0.000137617
0.000134333
0.000131131
0.000128014