/*--------------------------------*- C++ -*----------------------------------*\
  =========                 |
  \\      /  F ield         | OpenFOAM: The Open Source CFD Toolbox
   \\    /   O peration     | Website:  https://openfoam.org
    \\  /    A nd           | Version:  9
     \\/     M anipulation  |
\*---------------------------------------------------------------------------*/
FoamFile
{
    format      ascii;
    class       surfaceScalarField;
    location    "750";
    object      phi;
}
// * * * * * * * * * * * * * * * * * * * * * * * * * * * * * * * * * * * * * //

dimensions      [0 3 -1 0 0 0 0];

internalField   nonuniform List<scalar> 
26464
(
0.00249653
0.00237435
0.00229723
0.00203785
0.00205647
0.00171448
0.00179031
0.00141328
0.0015072
0.00114147
0.00121973
0.000895363
0.000938136
0.000669951
0.000667141
0.000461088
0.000410498
0.00025809
0.000182624
4.99347e-05
2.68354e-05
-0.000168147
-5.53158e-05
-0.000327824
-0.000329641
-5.50398e-05
0.00228177
0.00246243
0.00214862
0.002171
0.00197472
0.00188838
0.00176999
0.00161801
0.0015426
0.00136886
0.00130328
0.00113468
0.00105647
0.000916759
0.000810772
0.000706789
0.000572763
0.000496098
0.000346753
0.000275945
0.000141521
3.70853e-05
1.39806e-05
-0.000200284
-0.000292032
-2.36279e-05
0.0020689
0.00252411
0.00197393
0.00226598
0.00184669
0.00201562
0.00168954
0.00177516
0.00151129
0.00154712
0.00131112
0.00133485
0.00109678
0.0011311
0.000874485
0.000929083
0.00065053
0.000720053
0.000430703
0.000495772
0.000215358
0.000252431
4.19708e-05
-2.68971e-05
-0.000198419
-5.16425e-05
0.00187228
0.00257333
0.0017994
0.00233886
0.00170221
0.0021128
0.00158078
0.00189659
0.00143519
0.00169271
0.00127045
0.00149959
0.00108971
0.00131184
0.000893306
0.00112549
0.000686965
0.000926394
0.000481238
0.0007015
0.000282892
0.000450777
9.29618e-05
0.000163033
-6.54535e-05
-4.00038e-05
0.00170314
0.0026132
0.00164512
0.00239688
0.00156572
0.00219219
0.00146596
0.00199635
0.00134785
0.00181082
0.00121144
0.001636
0.00105578
0.0014675
0.000884067
0.0012972
0.000699242
0.00111122
0.000506276
0.000894466
0.000321931
0.000635122
0.00016233
0.000322634
0.000110182
-1.3306e-05
0.00155964
0.00264751
0.00150943
0.0024471
0.00144404
0.00225758
0.00136112
0.00207927
0.00126081
0.00191113
0.00114368
0.00175313
0.0010098
0.00160138
0.000858454
0.00144855
0.000690604
0.00127907
0.000510263
0.00107481
0.000337384
0.000808001
0.000205582
0.000454436
0.000311222
4.54232e-06
0.00143605
0.00267652
0.00139387
0.00248928
0.00133713
0.00231433
0.001265
0.00215139
0.00117791
0.00199822
0.00107589
0.00185515
0.000957287
0.00171999
0.000822846
0.00158299
0.000669959
0.00143196
0.000499873
0.00124489
0.000329208
0.000978666
0.000207699
0.000575944
0.00051515
3.77182e-06
0.00132686
0.00270378
0.00128886
0.00252728
0.0012399
0.00236329
0.00117753
0.00221376
0.00110096
0.00207479
0.00101038
0.00194573
0.000904822
0.00182554
0.000783194
0.00170462
0.000642409
0.00157274
0.000482914
0.00140439
0.000306837
0.00115474
0.000175713
0.000707069
0.000697544
-6.68126e-06
0.00123008
0.00272971
0.00119551
0.00256185
0.00115001
0.00240879
0.00109534
0.00226844
0.00102769
0.00214244
0.000947397
0.00202603
0.000853771
0.00191917
0.000744271
0.00181412
0.000616603
0.00170041
0.000466691
0.0015543
0.000285548
0.00133589
0.000117463
0.000875153
0.000838833
-2.38264e-05
0.00114247
0.00275641
0.00110779
0.00259653
0.00106605
0.00245053
0.00101558
0.0023189
0.000956638
0.00220139
0.000886696
0.00209597
0.000804962
0.0020009
0.000709015
0.00191006
0.000595501
0.00181392
0.000457179
0.00169262
0.000280311
0.00151275
6.23291e-05
0.00109314
0.000952926
-5.17632e-05
0.00106341
0.00278523
0.00102823
0.00263171
0.000987686
0.00249107
0.000942359
0.00236423
0.000890529
0.00225322
0.000831273
0.00215522
0.000762736
0.00206944
0.000682381
0.00199042
0.00058481
0.0019115
0.000462114
0.00181532
0.000299097
0.00167577
5.11045e-05
0.00134113
0.00108799
-8.39608e-05
0.000998317
0.00281424
0.00096466
0.00266536
0.000926487
0.00252925
0.000884649
0.00240607
0.000840569
0.0022973
0.000792205
0.00220359
0.000737076
0.00212457
0.000671706
0.00205579
0.000592203
0.001991
0.000489045
0.00191848
0.000347204
0.00181761
0.000106437
0.0015819
0.00128689
-9.24616e-05
0.000958948
0.00283623
0.000931045
0.00269327
0.000899585
0.00256071
0.000865456
0.0024402
0.000828571
0.00233418
0.000788722
0.00224344
0.000745708
0.00216758
0.000695036
0.00210646
0.000632509
0.00205352
0.000548419
0.00200257
0.000430649
0.00193538
0.000223653
0.00178889
0.00153688
-2.6338e-05
0.000948294
0.00284092
0.000938329
0.00270323
0.00092208
0.00257696
0.000900109
0.00246217
0.000873893
0.0023604
0.000844251
0.00227308
0.000809636
0.0022022
0.00077035
0.00214575
0.000719647
0.00210423
0.000652365
0.00206985
0.000555543
0.0020322
0.000389103
0.00195533
0.00178381
0.000142172
0.000962793
0.00282
0.000980117
0.00268591
0.000988874
0.0025682
0.000988791
0.00246225
0.000978789
0.0023704
0.000960571
0.0022913
0.000936074
0.00222669
0.000903645
0.00217817
0.000862433
0.00214544
0.000805283
0.002127
0.000724394
0.00211309
0.000592178
0.00208755
0.00199593
0.000380059
0.000992718
0.00277038
0.00104064
0.00263799
0.00108059
0.00252824
0.00110728
0.00243556
0.00112059
0.00235709
0.00112006
0.00229183
0.00110708
0.00223967
0.00108267
0.00220259
0.00104639
0.00218172
0.000996825
0.00217656
0.000925844
0.00218408
0.000818428
0.00219496
0.00216891
0.000645446
0.00103427
0.00269654
0.00110906
0.0025632
0.00117649
0.00246081
0.00123074
0.0023813
0.00126837
0.00231946
0.00128764
0.00227257
0.00128988
0.00223742
0.00127648
0.00221599
0.00124756
0.00221064
0.0012028
0.00222132
0.00113861
0.00224827
0.00104769
0.00228588
0.00230981
0.000906792
0.00109075
0.00260559
0.0011818
0.00247214
0.0012683
0.00237432
0.00134309
0.00230651
0.0014009
0.00226165
0.0014392
0.00223427
0.00145725
0.00221938
0.00145507
0.00221817
0.00143379
0.00223192
0.00139585
0.00225926
0.00133756
0.00230656
0.001258
0.00236545
0.00242911
0.00113869
0.00116501
0.00250563
0.00126455
0.0023726
0.00135925
0.00227962
0.00144448
0.00222128
0.00151446
0.00219167
0.00156565
0.00218307
0.00159493
0.0021901
0.00160197
0.00221113
0.00158989
0.002244
0.001556
0.00229314
0.00150401
0.00235854
0.0014296
0.00243986
0.00253225
0.00132646
0.00125825
0.00239974
0.00136068
0.00227016
0.00145707
0.00218323
0.00154258
0.00213578
0.00161522
0.00211903
0.00166968
0.00212862
0.00170371
0.00215607
0.00171695
0.00219789
0.00170601
0.00225494
0.00167516
0.00232399
0.00162381
0.00240989
0.00155228
0.00251139
0.00262876
0.00145578
0.00136847
0.00228924
0.00147053
0.0021681
0.00156278
0.00209098
0.00164374
0.00205482
0.00170958
0.00205319
0.00175837
0.00207983
0.00178784
0.00212659
0.00179487
0.00219087
0.00178174
0.00226807
0.00174693
0.0023588
0.00169021
0.0024666
0.0016169
0.0025847
0.00272326
0.0015224
0.00148682
0.00217518
0.00158663
0.00206829
0.00167167
0.00200594
0.00174126
0.00198523
0.00179404
0.00200041
0.0018288
0.00204507
0.00184351
0.00211189
0.00183793
0.00219644
0.00181069
0.00229532
0.00176402
0.00240547
0.00169924
0.00253138
0.0016187
0.00266525
0.00281979
0.00152217
0.00160471
0.00206002
0.00169752
0.00197548
0.00177029
0.00193317
0.00182176
0.00193377
0.00185333
0.00196884
0.00186524
0.00203316
0.00185772
0.00211941
0.00183016
0.002224
0.00178443
0.00234104
0.00172141
0.0024685
0.00164229
0.00261051
0.00155306
0.00275447
0.00291824
0.00145461
0.00170153
0.0019506
0.00178223
0.00189478
0.00183525
0.00188015
0.00186329
0.00190574
0.00186685
0.00196527
0.00184854
0.00205148
0.00181099
0.00215696
0.00175591
0.00227909
0.00168494
0.002412
0.00160262
0.00255082
0.00151022
0.0027029
0.0014129
0.00285179
0.00302002
0.00131112
0.00175615
0.00185664
0.00181353
0.0018374
0.00183758
0.0018561
0.00183211
0.00191121
0.00180108
0.0019963
0.00174873
0.00210382
0.00167757
0.00222811
0.00159223
0.00236443
0.00149559
0.00250864
0.00139126
0.00265516
0.00128247
0.0028117
0.00117573
0.00295854
0.00312507
0.00107068
0.00173664
0.00179199
0.00175971
0.00181433
0.00174349
0.00187232
0.00169506
0.00195964
0.00162078
0.00207058
0.00152582
0.00219879
0.00141757
0.00233637
0.0012993
0.0024827
0.00117629
0.00263164
0.00105078
0.00278066
0.000928934
0.00293355
0.000812501
0.00307497
0.00323137
0.000706198
0.00160513
0.00177924
0.00157288
0.00184657
0.00150342
0.00194177
0.00140343
0.00205963
0.00127906
0.00219495
0.00113797
0.00233988
0.000986559
0.00248777
0.000831403
0.00263786
0.00067829
0.00278476
0.0005332
0.00292575
0.000403867
0.00306288
0.000288538
0.0031903
0.00332449
0.000195419
0.00131446
0.00183691
0.00121002
0.00195101
0.00106854
0.00208326
0.000898888
0.00222928
0.000713398
0.00238044
0.000525296
0.00252798
0.000343232
0.00266984
0.00017438
0.00280671
2.27709e-05
0.00293637
-0.000108923
0.00305745
-0.000217796
0.00317175
-0.000306008
0.00327851
0.00338534
-0.000366853
0.000797789
0.00199371
0.000609075
0.00213972
0.000403071
0.00228926
0.000193348
0.00243901
-9.10303e-06
0.00258289
-0.000197519
0.0027164
-0.00036773
0.00284005
-0.000515498
0.00295448
-0.000639305
0.00306017
-0.000738325
0.00315647
-0.000811958
0.00324539
-0.000863046
0.0033296
0.00341022
-0.000887927
0.000115712
0.00220697
-0.000103167
0.0023586
-0.000317324
0.00250342
-0.000517854
0.00263954
-0.000699922
0.00276496
-0.000860662
0.00287714
-0.000998338
0.00297772
-0.00111072
0.00306686
-0.00119744
0.00314689
-0.00125971
0.00321874
-0.00129837
0.00328404
-0.00131481
0.00334603
0.0034062
-0.00131079
-0.000533281
0.00242476
-0.000740073
0.00256539
-0.000930477
0.00269383
-0.00110117
0.00281023
-0.00124976
0.00291354
-0.00137548
0.00300286
-0.00147684
0.00307908
-0.00155435
0.00314437
-0.00160767
0.00320021
-0.0016387
0.00324977
-0.0016491
0.00329444
-0.00164224
0.00333918
0.00338398
-0.00162002
-0.00104173
0.00261992
-0.00122024
0.0027439
-0.00137911
0.0028527
-0.00151661
0.00294773
-0.0016317
0.00302863
-0.00172437
0.00309553
-0.00179547
0.00315018
-0.00184426
0.00319316
-0.0018718
0.00322776
-0.00188015
0.00325812
-0.00187341
0.0032877
-0.00185264
0.00331841
0.00335332
-0.00182199
-0.00139128
0.00278421
-0.0015391
0.00289172
-0.0016679
0.0029815
-0.00177552
0.00305535
-0.00186237
0.00311548
-0.00192909
0.00316225
-0.00197579
0.00319688
-0.00200375
0.00322113
-0.00201454
0.00323855
-0.00201003
0.00325362
-0.00199309
0.00327075
-0.00196752
0.00329284
0.00332167
-0.00193587
-0.00160633
0.00291785
-0.00172451
0.0030099
-0.00182576
0.00308275
-0.00190955
0.00313914
-0.0019742
0.00318014
-0.00202152
0.00320957
-0.00205112
0.00322648
-0.00206529
0.0032353
-0.00206594
0.0032392
-0.00205501
0.00324268
-0.0020355
0.00325125
-0.00201011
0.00326744
0.00329227
-0.00198071
-0.00172038
0.00302215
-0.00181231
0.00310183
-0.0018908
0.00316124
-0.00195414
0.00320248
-0.00200256
0.00322856
-0.002035
0.00324201
-0.00205355
0.00324502
-0.00205937
0.00324113
-0.00205493
0.00323476
-0.00204245
0.0032302
-0.00202372
0.00323251
-0.00200093
0.00324465
0.00326757
-0.00197623
-0.00168937
0.0030107
-0.00176699
0.00309977
-0.00183533
0.00317017
-0.00189317
0.00321907
-0.00194022
0.00324953
-0.0019748
0.00326314
-0.0019969
0.00326411
-0.00200824
0.00325636
-0.00200935
0.00324224
-0.00200297
0.00322837
-0.00199067
0.00321791
-0.00197458
0.00321643
-0.00195627
0.00322634
0.00324833
-0.00193703
-5.85402e-05
0.00680569
-0.000201033
0.00642816
-0.000442302
0.00549855
-0.000861062
0.00375957
-0.00118518
0.00318575
-0.00140271
0.00300612
-0.001547
0.00297064
-0.00164498
0.0030112
-0.0017159
0.00308162
-0.00177152
0.00315539
-0.00181835
0.00321701
-0.00185841
0.00325913
-0.00189051
0.00328162
-0.00191451
0.00328715
-0.0019292
0.00327881
-0.0019348
0.00326195
-0.00193415
0.00324159
-0.00192712
0.00322134
-0.00191678
0.00320756
-0.00190378
0.00320343
-0.0018892
0.00321176
0.00323366
-0.00187453
-6.66328e-05
0.00693087
-0.000202711
0.00656424
-0.000441841
0.00573768
-0.000853842
0.00417158
-0.00118537
0.00351727
-0.00141344
0.00323419
-0.00156133
0.00311852
-0.0016533
0.00310318
-0.00171172
0.00314004
-0.00175051
0.00319418
-0.00177941
0.00324591
-0.00180319
0.00328291
-0.00182254
0.00330097
-0.00183656
0.00330117
-0.00184504
0.00328729
-0.00184784
0.00326475
-0.0018451
0.00323886
-0.00183888
0.00321512
-0.00183032
0.00319899
-0.00182008
0.00319319
-0.00180928
0.00320097
0.00322239
-0.00179801
-5.64722e-05
0.00704827
-0.000184053
0.00669182
-0.000410019
0.00596365
-0.000802997
0.00456455
-0.00113751
0.00385179
-0.00137835
0.00347503
-0.00153633
0.00327649
-0.00163209
0.00319894
-0.00168531
0.00319326
-0.00171364
0.0032225
-0.00172923
0.00326151
-0.00173876
0.00329243
-0.00174612
0.00330834
-0.00175167
0.00330672
-0.00175489
0.0032905
-0.00175452
0.00326438
-0.00175128
0.00323562
-0.00174555
0.0032094
-0.00173819
0.00319163
-0.00173045
0.00318545
-0.00172194
0.00319246
0.00321421
-0.00171376
-3.24674e-05
0.0071564
-0.000149412
0.00680876
-0.000355296
0.00616953
-0.000720648
0.00492991
-0.0010522
0.00418335
-0.00130489
0.00372772
-0.00147842
0.00345003
-0.00158451
0.00330503
-0.00164111
0.00324986
-0.00166577
0.00324717
-0.00167237
0.00326811
-0.00167163
0.00329169
-0.00166879
0.0033055
-0.00166617
0.00330411
-0.00166368
0.00328801
-0.00166085
0.00326155
-0.00165653
0.0032313
-0.00165146
0.00320433
-0.0016455
0.00318567
-0.00163876
0.00317872
-0.00163254
0.00318624
0.00320742
-0.00162575
1.33766e-06
0.00725477
-0.000103492
0.00691359
-0.000284663
0.0063507
-0.000617385
0.00526263
-0.000940167
0.00450613
-0.00120204
0.0039896
-0.0013918
0.00363978
-0.00151366
0.00342689
-0.00157996
0.00331617
-0.00160789
0.00327509
-0.00161198
0.0032722
-0.00160403
0.00328374
-0.00159296
0.00329443
-0.00158303
0.00329418
-0.00157515
0.00328013
-0.00156903
0.00325543
-0.00156409
0.00322636
-0.00155894
0.00319918
-0.00155343
0.00318016
-0.00154798
0.00317327
-0.00154235
0.00318061
0.00320234
-0.00153727
4.23498e-05
0.00734377
-5.05946e-05
0.00700654
-0.000204917
0.00650503
-0.000502415
0.00556013
-0.000809642
0.00481336
-0.001075
0.00425495
-0.00127974
0.00384453
-0.00141973
0.00356688
-0.00150235
0.00339879
-0.00153923
0.00331197
-0.00154602
0.003279
-0.00153614
0.00327387
-0.00151962
0.0032779
-0.00150317
0.00327773
-0.00148992
0.00326688
-0.00148056
0.00324607
-0.00147377
0.00321958
-0.00146827
0.00319368
-0.00146338
0.00317527
-0.00145848
0.00316837
-0.00145356
0.00317569
0.0031977
-0.00144892
0.000167354
0.0077644
8.79305e-05
0.0074232
6.11814e-06
0.00708835
-0.000123815
0.00663496
-0.000381821
0.00581813
-0.000667648
0.00509918
-0.000931257
0.00451856
-0.00114737
0.00406065
-0.00130558
0.00372508
-0.0014062
0.00349942
-0.00145854
0.00336431
-0.00147397
0.00329442
-0.00146666
0.00326656
-0.00144819
0.00325943
-0.00142712
0.00325666
-0.00140913
0.0032489
-0.00139584
0.00323277
-0.00138659
0.00321033
-0.00138037
0.00318745
-0.00137524
0.00317014
-0.00137064
0.00316377
-0.00136628
0.00317134
0.00319322
-0.0013618
0.000205694
0.007837
0.00013556
0.00749333
6.42328e-05
0.00715968
-4.3162e-05
0.00674236
-0.000261729
0.0060367
-0.000522102
0.00535956
-0.000776419
0.00477288
-0.000998828
0.00428306
-0.00117285
0.00389911
-0.00129357
0.00362013
-0.00136369
0.00343443
-0.00139315
0.00332388
-0.0013934
0.00326681
-0.00137666
0.00324269
-0.00135371
0.00323371
-0.00133154
0.00322673
-0.00131421
0.00321544
-0.00130219
0.00319831
-0.00129429
0.00317956
-0.00128884
0.00316469
-0.00128425
0.00315919
-0.0012797
0.00316678
0.00318924
-0.00127572
0.000245813
0.00790193
0.000183456
0.00755569
0.000121565
0.00722157
3.35303e-05
0.00683039
-0.000146571
0.0062168
-0.000377157
0.00559014
-0.000617288
0.00501301
-0.000839621
0.00450539
-0.00102556
0.00408505
-0.00116433
0.0037589
-0.00125464
0.00352474
-0.00130112
0.00337036
-0.00131359
0.00327929
-0.00130314
0.00323223
-0.00128123
0.00321181
-0.0012569
0.0032024
-0.00123576
0.0031943
-0.00122054
0.00318309
-0.00121024
0.00316926
-0.00120356
0.00315801
-0.0011987
0.00315432
-0.00119448
0.00316257
0.00318499
-0.00119023
0.000285442
0.00796018
0.00023076
0.00761037
0.000178026
0.0072743
0.000105848
0.00690257
-3.95085e-05
0.00636216
-0.000237927
0.00578856
-0.000458764
0.00523385
-0.000675362
0.00472199
-0.00086764
0.00427732
-0.00102175
0.00391302
-0.00113148
0.00363446
-0.00119719
0.00343608
-0.00122547
0.00330756
-0.00122545
0.00323222
-0.00120798
0.00319434
-0.00118373
0.00317815
-0.0011601
0.00317066
-0.00114121
0.0031642
-0.00112829
0.00315634
-0.0011199
0.00314962
-0.00111415
0.00314858
-0.0011096
0.00315801
0.00318074
-0.00110534
0.000324553
0.00801209
0.00027669
0.00765823
0.000231319
0.00731968
0.000173267
0.00696062
5.79242e-05
0.0064775
-0.000107882
0.00595437
-0.00030437
0.00543034
-0.000509983
0.0049276
-0.000702364
0.00446971
-0.000867408
0.00407806
-0.000994407
0.00376146
-0.00108037
0.00352204
-0.00112662
0.00335382
-0.00114078
0.00324637
-0.00113224
0.00318581
-0.00111099
0.00315691
-0.00108642
0.00314609
-0.00106449
0.00314227
-0.00104817
0.00314002
-0.00103742
0.00313886
-0.00103046
0.00314163
-0.00102528
0.00315282
0.00317634
-0.00102088
0.000362085
0.00805833
0.000320294
0.00770002
0.000281614
0.00735836
0.0002346
0.00700764
0.00014448
0.00656762
9.96163e-06
0.00608889
-0.000159167
0.00559947
-0.000347337
0.00511577
-0.000535264
0.00465764
-0.00070567
0.00424847
-0.000846596
0.00390239
-0.000950545
0.00362599
-0.00101667
0.00341994
-0.0010477
0.00327741
-0.00105114
0.00318925
-0.00103673
0.0031425
-0.0010137
0.00312306
-0.000990102
0.00311868
-0.000970594
0.00312051
-0.000956703
0.00312498
-0.000947602
0.00313253
-0.000941549
0.00314677
0.00317156
-0.000936763
0.000397603
0.00809915
0.000361117
0.00773651
0.000328633
0.00739084
0.000291345
0.00704493
0.000221547
0.00663742
0.000114666
0.00619577
-2.64045e-05
0.00574054
-0.000192689
0.00528206
-0.0003697
0.00483465
-0.000539668
0.00441844
-0.000689514
0.00405224
-0.000809535
0.00374601
-0.000894341
0.00350475
-0.000944273
0.00332734
-0.000963241
0.00320822
-0.000958896
0.00313816
-0.00094067
0.00310483
-0.000917307
0.00309532
-0.000895355
0.00309856
-0.00087814
0.00310776
-0.000866465
0.00312085
-0.000858632
0.00313894
0.00316607
-0.000853145
0.000431078
0.00813584
0.000399631
0.00776796
0.00037218
0.0074183
0.000342547
0.00707456
0.000289798
0.00669017
0.000205948
0.00627962
9.21196e-05
0.00585437
-4.90592e-05
0.00542324
-0.000208854
0.00499444
-0.000373532
0.00458312
-0.000527151
0.00420586
-0.000659019
0.00387788
-0.000761107
0.00360684
-0.000829917
0.00339615
-0.000866388
0.00324469
-0.00087569
0.00314746
-0.000865703
0.00309485
-0.000845251
0.00307487
-0.000822297
0.00307561
-0.000802386
0.00308786
-0.000787374
0.00310585
-0.000777312
0.00312888
0.00315907
-0.000770305
0.000462604
0.00816783
0.000435244
0.00779532
0.00041213
0.00744141
0.00038911
0.00709758
0.000349303
0.00672998
0.000286009
0.00634292
0.000195589
0.00594479
7.92736e-05
0.00553955
-5.94476e-05
0.00513317
-0.000211235
0.00473491
-0.000363167
0.00435779
-0.0005019
0.00401662
-0.000617519
0.00372246
-0.000704287
0.00348292
-0.000759493
0.0032999
-0.000785024
0.003173
-0.000786731
0.00309656
-0.000772652
0.00306079
-0.000751258
0.00305422
-0.000729363
0.00306596
-0.000711293
0.00308778
-0.000698143
0.00311573
0.00315003
-0.000689109
0.000491249
0.00819595
0.000467817
0.00781875
0.00044881
0.00746042
0.000430519
0.00711587
0.000401555
0.00675895
0.000354133
0.00639034
0.000284912
0.00601402
0.000192121
0.00563235
7.62311e-05
0.00524906
-5.76432e-05
0.00486878
-0.00020096
0.00450111
-0.00034084
0.0041565
-0.000466339
0.00384796
-0.000568282
0.00358486
-0.000641761
0.00337339
-0.000685286
0.00321652
-0.000701765
0.00311304
-0.000697564
0.00305659
-0.000680638
0.0030373
-0.000658999
0.00304433
-0.000638512
0.0030673
-0.000622086
0.00309932
0.00313817
-0.000610208
0.000517555
0.00822096
0.000497625
0.00783868
0.00048181
0.00747624
0.00046807
0.00712961
0.000447325
0.0067797
0.00041297
0.00642469
0.000360861
0.00606613
0.000288277
0.00570493
0.000195214
0.00534213
8.20716e-05
0.00498192
-4.57597e-05
0.00462895
-0.000180443
0.00429119
-0.000309864
0.00397739
-0.00042322
0.00369822
-0.000513155
0.00346333
-0.000575167
0.00327854
-0.00060885
0.00314673
-0.000617911
0.00306565
-0.000609181
0.00302858
-0.000590411
0.00302556
-0.000568962
0.00304586
-0.000549728
0.00308009
0.0031231
-0.00053465
0.000541103
0.0082425
0.000524219
0.00785557
0.000511559
0.00748891
0.000501243
0.00713993
0.00048694
0.00679401
0.000462566
0.00644907
0.000424805
0.00610389
0.000370505
0.00575923
0.000296893
0.00541574
0.000204601
0.00507422
9.51639e-05
0.00473839
-2.61005e-05
0.00441245
-0.000151843
0.00410313
-0.000271455
0.00381784
-0.000374662
0.00356654
-0.000454034
0.00335791
-0.00050598
0.00319869
-0.000531356
0.00309103
-0.000534401
0.00303163
-0.000522174
0.00301334
-0.000502253
0.00302594
-0.000481279
0.00305914
0.00310491
-0.000463065
0.000562499
0.0082613
0.000548034
0.00787003
0.000537714
0.00749923
0.000530607
0.00714704
0.000521322
0.0068033
0.000505484
0.00646491
0.000478581
0.00613081
0.000438541
0.00579928
0.000382844
0.00547145
0.000309977
0.00514709
0.000220029
0.00482835
0.000115008
0.00451748
4.04879e-07
0.00421775
-0.000117606
0.00393586
-0.000228295
0.00367724
-0.000322268
0.00345189
-0.000392223
0.00326865
-0.000435684
0.0031345
-0.000454029
0.00304998
-0.000452004
0.00301133
-0.000437161
0.00301111
-0.000416622
0.00303863
0.00308433
-0.000396007
0.000580748
0.00827795
0.000569043
0.00788174
0.000561203
0.00750708
0.000556428
0.00715182
0.000550715
0.00680903
0.000540868
0.00647477
0.00052359
0.0061481
0.00049548
0.00582739
0.0004546
0.00551235
0.000398296
0.0052034
0.000326916
0.00489975
0.000240048
0.00460436
0.000139774
0.00431804
3.16233e-05
0.00404402
-7.88626e-05
0.00378775
-0.000181672
0.00355471
-0.000267264
0.00335427
-0.000329167
0.00319642
-0.000365128
0.00308596
-0.000377316
0.00302353
-0.000371342
0.00300515
-0.000354405
0.00302171
0.00306326
-0.000333304
0.00059701
0.00829202
0.000587505
0.00789126
0.000581437
0.00751317
0.000578635
0.00715463
0.00057641
0.00681127
0.0005712
0.00647999
0.000560859
0.00615846
0.000542264
0.005846
0.00051329
0.00554134
0.000472107
0.0052446
0.000416393
0.00495548
0.0003472
0.00467356
0.000263828
0.00440143
0.000168252
0.00413961
6.60469e-05
0.00388997
-3.72868e-05
0.00365806
-0.000132759
0.00344976
-0.000210869
0.00327454
-0.000265494
0.0031406
-0.000294828
0.0030529
-0.00030189
0.00301222
-0.000292482
0.00301238
0.00304468
-0.000273819
0.000611442
0.00830402
0.000603228
0.00789948
0.000599466
0.00751694
0.000598382
0.00715572
0.0005979
0.00681176
0.000596956
0.00648094
0.000591646
0.00616379
0.000580584
0.00585707
0.000561568
0.00556037
0.000531987
0.00527419
0.000491537
0.00499595
0.000437063
0.00472805
0.000370111
0.0044684
0.000290672
0.00421905
0.000200094
0.00398056
0.00010328
0.00375488
6.47309e-06
0.00354658
-8.17906e-05
0.00336281
-0.000152832
0.00321166
-0.00020074
0.0031008
-0.000224306
0.00303581
-0.000226832
0.00301487
0.0030324
-0.000214579
0.000633456
0.00874599
0.000623721
0.00831376
0.000617676
0.00790554
0.00061463
0.00752
0.000615003
0.00715536
0.000617285
0.00680949
0.000618343
0.0064799
0.000617529
0.00616461
0.000612459
0.00586216
0.000600642
0.0055722
0.000581529
0.00529332
0.000552268
0.00502522
0.000512322
0.00476801
0.000460169
0.00452057
0.000395643
0.0042836
0.000319649
0.00405657
0.000233909
0.00384064
0.00014262
0.00363788
5.22642e-05
0.00345319
-2.90651e-05
0.00329301
-9.33847e-05
0.00316515
-0.000135023
0.00307746
-0.000153228
0.00303313
0.00303095
-0.000151693
0.000642835
0.00875833
0.000634505
0.0083221
0.000629867
0.00791019
0.00062881
0.00752107
0.000630211
0.00715398
0.000633467
0.00680625
0.000637404
0.00647598
0.000639844
0.00616218
0.000639082
0.00586293
0.000633935
0.00557736
0.000622333
0.00530494
0.000602851
0.00504471
0.000574285
0.00479659
0.000535224
0.00455963
0.000485258
0.00433357
0.000423743
0.00411808
0.000351326
0.00391306
0.000270108
0.00371909
0.00018433
0.00353896
0.000100308
0.00337703
2.57338e-05
0.0032397
-3.17001e-05
0.00313491
-6.72775e-05
0.00306874
0.0030442
-8.04533e-05
0.00066133
0.00923347
0.000651103
0.00876856
0.000644117
0.0083291
0.000641098
0.00791322
0.000640968
0.00752121
0.00064394
0.00715101
0.000648693
0.0068015
0.000653942
0.00647073
0.000658604
0.00615752
0.000661484
0.00586006
0.000660677
0.00557817
0.000655305
0.00531031
0.000643749
0.00505627
0.000625274
0.00481506
0.000597706
0.00458719
0.0005604
0.00437087
0.000512405
0.00416607
0.000453797
0.00397166
0.000385039
0.00378784
0.000308485
0.0036155
0.000228228
0.00345727
0.000150558
0.00331738
8.28269e-05
0.0032026
3.21535e-05
0.00311951
0.00307384
2.61388e-06
0.00066681
0.00924627
0.000657918
0.00877745
0.000652943
0.00833407
0.000651157
0.007915
0.000652213
0.00752015
0.000656002
0.00714722
0.000661761
0.00679574
0.000668401
0.00646409
0.000675094
0.00615083
0.00068052
0.00585463
0.000683701
0.00557498
0.000683222
0.00531078
0.000678092
0.00506138
0.000666871
0.00482627
0.000648528
0.00460552
0.000622085
0.0043973
0.000586712
0.00420143
0.000541182
0.00401717
0.000485511
0.0038435
0.000420523
0.00368047
0.000348653
0.00352913
0.00027389
0.0033921
0.000202625
0.00327387
0.000141599
0.00318041
0.00311803
9.7286e-05
0.000671762
0.00925706
0.000664496
0.00878473
0.000660706
0.00833787
0.000660096
0.00791561
0.00066224
0.007518
0.000667116
0.00714234
0.000673354
0.0067895
0.000681118
0.00645632
0.000689412
0.00614252
0.000696754
0.00584727
0.000702708
0.00556901
0.000706042
0.00530743
0.000705546
0.00506187
0.000700341
0.00483146
0.000689833
0.00461602
0.000672427
0.0044147
0.000647349
0.0042265
0.00061359
0.00405092
0.000570413
0.00388666
0.000517707
0.00373317
0.000456444
0.00359037
0.000389137
0.00345941
0.000319938
0.00334304
0.000254913
0.0032455
0.00317234
0.000200643
0.000675374
0.00926621
0.000670006
0.00879009
0.000667422
0.00834044
0.000667546
0.00791548
0.000671166
0.00751437
0.000676394
0.00713711
0.000683755
0.00678212
0.00069249
0.00644757
0.000701372
0.00613362
0.000710551
0.00583808
0.000718298
0.00556125
0.000724282
0.00530144
0.000727745
0.00505839
0.000727598
0.0048316
0.000723104
0.0046205
0.000713032
0.00442476
0.000696738
0.00424278
0.00067309
0.00407456
0.000641122
0.00391862
0.000600312
0.00377397
0.000550642
0.00364003
0.000493074
0.00351695
0.000430393
0.00340573
0.000366599
0.00330918
0.00323133
0.000307491
0.000678853
0.00927384
0.000674301
0.00879464
0.000673139
0.00834159
0.000674745
0.00791387
0.000678294
0.00751081
0.000684526
0.00713087
0.000692548
0.00677409
0.000701774
0.00643834
0.000711761
0.00612362
0.000721699
0.00582814
0.000731432
0.0055515
0.000739321
0.00529354
0.000745853
0.00505184
0.000749366
0.00482808
0.00074918
0.00462067
0.000745318
0.00442861
0.000735997
0.00425208
0.000720669
0.00408987
0.000698426
0.00394084
0.000668273
0.00380411
0.000629717
0.00367857
0.000582973
0.00356369
0.00052908
0.00345959
0.000470891
0.0033674
0.00328975
0.000412483
0.000681078
0.00927996
0.000677994
0.00879772
0.000677934
0.00834164
0.000680199
0.0079116
0.000685138
0.00750586
0.000691677
0.00712432
0.000700377
0.00676538
0.000709958
0.00642876
0.000720528
0.00611305
0.00073134
0.00581732
0.000741611
0.00554122
0.000752011
0.00528314
0.000759887
0.00504396
0.000766165
0.0048218
0.000770356
0.00461647
0.000770781
0.00442818
0.000767064
0.00425579
0.000758689
0.00409824
0.000744483
0.00395503
0.000723609
0.00382497
0.000695271
0.0037069
0.000658986
0.00359994
0.000615113
0.00350347
0.000564775
0.00341764
0.00334364
0.000510784
0.000682605
0.00928532
0.000680932
0.00879938
0.000681586
0.00834098
0.000685215
0.00790797
0.00069043
0.00750064
0.000697902
0.00711685
0.000706502
0.00675676
0.00071677
0.00641848
0.000727763
0.00610204
0.000739256
0.00580582
0.000750514
0.00552995
0.000761188
0.00527246
0.000771239
0.00503389
0.000779977
0.00481305
0.000786218
0.00461021
0.000790251
0.00442414
0.000791128
0.0042549
0.000788143
0.00410122
0.000780483
0.00396268
0.000767373
0.00383807
0.000747854
0.0037264
0.000721234
0.00362655
0.000687153
0.00353753
0.000646018
0.00345878
0.0033905
0.000599148
0.000684344
0.00928855
0.00068341
0.00880031
0.000685072
0.0083393
0.000689018
0.00790401
0.000694837
0.0074948
0.000702577
0.0071091
0.000711755
0.00674757
0.000722308
0.00640792
0.000733701
0.00609063
0.000745357
0.00579416
0.00075736
0.00551794
0.000769105
0.00526071
0.000780303
0.00502269
0.000790233
0.00480312
0.000798617
0.00460182
0.000805372
0.00441738
0.000809597
0.00425066
0.000810889
0.00409992
0.000808508
0.00396504
0.000801679
0.00384489
0.000789559
0.0037385
0.000771371
0.00364471
0.000746439
0.00356245
0.000714402
0.00349074
0.00342902
0.000675794
0.000684413
0.0092911
0.000684871
0.00879984
0.000687554
0.0083366
0.000692129
0.00789943
0.000698468
0.00748845
0.000706732
0.00710083
0.000716242
0.00673805
0.000726596
0.00639756
0.000738023
0.00607919
0.000750048
0.00578213
0.000762689
0.00550528
0.000774856
0.00524854
0.000786522
0.00501101
0.000797662
0.00479197
0.000807975
0.00459149
0.000816576
0.00440877
0.00082334
0.00424388
0.000827836
0.00409542
0.000829663
0.0039632
0.000827886
0.00384666
0.000821975
0.0037444
0.000810721
0.00365595
0.000793854
0.00357931
0.000770252
0.00351432
0.00345891
0.00074031
0.000684464
0.00929226
0.000685537
0.00879876
0.000688844
0.00833328
0.000694038
0.00789423
0.000701447
0.00748103
0.000709317
0.00709296
0.00071934
0.00672801
0.000730084
0.00638681
0.000741937
0.00606733
0.000754117
0.00576995
0.00076642
0.00549297
0.000779074
0.00523588
0.00079148
0.00499859
0.000803514
0.00477993
0.000814555
0.00458044
0.000824247
0.00439907
0.000833371
0.00423475
0.000840346
0.00408843
0.000845168
0.00395837
0.000847499
0.00384432
0.000846296
0.00374559
0.000841162
0.00366106
0.000830926
0.00358953
0.000815274
0.00352993
0.00348119
0.000792941
0.000684011
0.00929262
0.000685741
0.00879703
0.000689684
0.00832933
0.000695342
0.00788857
0.000702806
0.00747355
0.000711951
0.00708381
0.00072168
0.00671828
0.000732648
0.00637584
0.000744074
0.00605589
0.000756566
0.00575745
0.000769132
0.00548039
0.0007818
0.00522321
0.000794788
0.00498559
0.000806878
0.00476784
0.000818801
0.00456851
0.000830245
0.00438763
0.000840154
0.00422483
0.000849259
0.00407933
0.000856467
0.00395115