/*--------------------------------*- C++ -*----------------------------------*\
  =========                 |
  \\      /  F ield         | OpenFOAM: The Open Source CFD Toolbox
   \\    /   O peration     | Website:  https://openfoam.org
    \\  /    A nd           | Version:  9
     \\/     M anipulation  |
\*---------------------------------------------------------------------------*/
FoamFile
{
    format      ascii;
    class       volScalarField;
    location    "750";
    object      ReThetat;
}
// * * * * * * * * * * * * * * * * * * * * * * * * * * * * * * * * * * * * * //

dimensions      [0 0 0 0 0 0 0];

internalField   nonuniform List<scalar> 
13354
(
589.101
591.498
594.616
597.146
599.142
600.69
601.755
602.236
602.132
601.051
598.058
590.812
582.672
572.789
576.386
582.223
587.822
592.612
596.524
599.449
601.153
601.534
600.694
598.492
592.651
583.006
558.11
561.455
568.201
575.569
582.546
588.754
593.934
597.587
599.289
599.018
597.388
592.339
583.722
545.235
548.014
554.622
562.716
571.104
579.089
586.294
592.048
595.527
596.352
595.08
591.389
583.844
534.045
536.21
542.145
550.2
559.17
568.324
577.263
585.128
590.584
592.845
592.147
588.479
583.327
524.575
526.075
531.077
538.494
547.334
557.121
567.635
577.465
584.865
588.722
588.677
584.951
580.868
516.729
517.627
521.605
527.867
536.19
546.671
558.558
569.548
578.562
584.015
584.767
581.46
578.978
510.366
510.865
513.82
518.615
525.957
538.262
550.181
561.625
571.703
578.496
580.212
578.018
578.418
505.489
505.668
507.757
511.19
518.715
531.404
542.916
554.24
564.63
572.523
575.585
574.161
578.949
502.326
502.232
503.476
505.732
515.122
526.266
537.349
548.161
558.551
567.021
571.133
569.676
578.271
501.039
500.847
501.368
505.408
513.017
522.536
532.327
542.809
553.269
562.057
566.782
565.14
573.924
501.302
501.316
501.418
506.133
511.543
518.648
527.359
537.355
547.725
556.978
562.458
560.904
566.232
502.311
502.87
502.999
505.201
508.343
515.32
522.57
530.846
541.479
551.495
557.966
557.614
558.468
503.231
504.578
505.169
506.363
508.051
512.007
516.897
525.228
535.843
546.149
553.55
555.293
554.203
503.667
505.806
507.045
508.087
509.226
511.503
514.902
520.513
531.869
541.955
549.835
553.723
553.461
503.743
506.427
508.11
509.355
510.583
512.408
515.368
520.296
530.721
539.757
547.433
552.813
554.598
503.745
506.584
508.358
509.788
511.432
513.505
516.519
521.863
531.492
539.49
546.589
552.624
556.332
503.775
506.478
508.06
509.6
511.606
514.19
518.134
523.669
532.754
540.291
547.04
553.308
558.266
503.856
506.285
507.621
509.102
511.386
514.365
519.143
526.463
534.187
541.427
548.186
554.692
560.358
503.996
506.25
507.358
508.733
510.885
514.377
519.337
527.245
534.903
542.362
549.525
556.47
562.625
504.113
506.423
507.517
508.588
510.713
514.264
520.41
527.526
535.241
543.187
551.038
558.604
565.191
504.049
506.75
507.912
508.935
510.824
515.267
520.893
527.843
535.887
544.455
553.053
561.22
568.224
503.681
507.069
508.584
509.507
512.131
516.076
521.679
528.954
537.528
546.677
556.002
564.709
572.142
503.063
507.475
509.22
510.917
513.475
517.766
523.843
531.658
540.777
550.333
560.176
569.213
577.076
502.541
507.935
510.608
512.609
515.919
521.106
527.9
536.272
545.861
555.962
565.967
574.95
583.416
502.646
509.393
512.419
515.552
520.359
526.877
534.578
543.469
553.297
563.546
573.376
583.002
592.536
504.93
512.38
516.454
521.157
527.429
535.236
543.883
553.553
564.02
573.736
583.194
592.677
602.842
509.539
517.78
523.543
530.743
538.541
547.501
556.837
566.539
576.079
585.214
594.868
603.03
611.801
518.37
527.358
534.848
543.213
552.098
562.138
571.814
580.957
588.063
594.802
599.549
605.456
610.41
528.893
539.373
548.651
558.108
567.451
576.577
582.996
586.647
591.272
594.356
594.284
589.891
590.023
542.612
553.47
561.057
566.589
574.322
580.559
583.518
583.983
584.934
577.496
576.318
573.798
573.668
549.512
559.211
564.564
567.879
573.003
575.175
568.586
568.41
568.057
563.93
562.828
561.909
562.581
549.39
558.273
561.438
556.105
559.242
560.628
557.862
557.341
556.535
554.275
553.814
554.149
555.605
534.599
544.023
548.872
548.783
550.873
551.619
550.285
549.663
548.919
547.845
548.054
549.18
551.069
524.342
534.78
541.107
543.761
545.567
545.909
545.021
544.393
543.888
543.565
544.226
545.713
547.714
507.574
516.051
527.987
535.345
539.758
541.899
542.188
541.435
540.797
540.492
540.595
541.464
543.005
544.902
923.038
887.768
792.252
684.811
633.163
603.807
584.511
551.153
510.79
511.179
522.712
530.388
536.184
539.06
539.64
539.028
538.386
538.193
538.508
539.425
540.844
542.506
920.178
891.368
814.759
728.608
677.542
643.145
615.249
563.636
513.537
509.91
519.1
526.291
532.811
536.565
537.728
537.42
536.85
536.731
537.167
538.082
539.324
540.676
914.726
886.919
818.738
753.674
712.843
678.41
641.4
576.962
525.536
513.938
517.63
522.883
529.659
534.254
536.146
536.33
535.981
535.97
536.522
537.496
538.611
539.629
912.753
887.18
822.475
769.154
738.575
709.22
670.044
606.48
545.675
523.056
519.378
521.381
526.926
531.986
534.718
535.632
535.655
535.791
536.508
537.662
538.812
539.559
912.87
892.241
831.536
784.768
758.983
734.718
696.593
635.502
572.002
542.762
526.418
521.812
525.036
530.032
533.396
535.099
535.656
536.06
537.013
538.495
539.935
540.602
910.58
895.79
843.055
801.563
778.829
757.462
722.574
667.072
612.251
568.824
540.17
527.621
525.051
528.365
531.857
534.401
535.748
536.608
537.88
539.839
541.871
542.78
889.279
901.935
893.038
851.822
819.317
800.301
779.918
748.432
697.869
649.186
605.809
565.233
539.436
527.914
527.902
530.344
533.349
535.646
537.226
538.94
541.489
544.388
545.96
845.819
885.359
882.82
852.095
836.661
821.35
803.059
774.631
729.181
685.107
646.215
595.364
557.68
537.029
529.405
529.289
532.378
535.409
537.688
539.968
543.199
547.158
549.848
819.552
854.449
855.497
850.507
851.339
841.779
826.978
801.028
760.783
719.976
684.787
640.922
586.118
552.364
535.763
530.314
531.703
535.056
537.988
540.912
544.723
549.802
553.996
785.182
810.22
815.843
832.485
861.213
861.481
849.46
827.49
792.404
753.97
720.686
681.575
622.763
580.246
548.405
534.578
532.774
534.978
537.955
541.5
545.901
552.008
557.918
729.209
743.724
747.22
802.106
860.444
874.672
870.291
854.091
823.032
787.339
755.859
721.325
673.516
616.175
572.265
545.691
535.548
535.345
537.726
541.531
546.541
553.462
561.111
684.622
691.381
691.611
770.849
857.431
885.772
889.595
877.669
851.981
820.467
790.129
758.146
718.705
669.952
606.898
565.293
545.427
536.955
536.66
541.1
546.7
554.192
563.203
653.617
655.078
652.74
707.087
839.159
889.648
902.441
898.073
879.582
852.142
823.256
792.898
758.499
717.31
658.722
599.84
562.002
542.117
537.704
540.825
546.291
554.138
564.095
633.603
631.57
627.498
659.663
808.635
884.417
911.991
915.915
903.962
881.471
854.524
826.207
795.279
759.747
711.629
643.366
594.362
556.219
542.41
541.37
545.71
553.156
563.621
621.678
617.388
612.194
629.387
782.172
870.106
913.536
928.965
924.925
907.362
884.094
858.261
829.943
798.289
759.187
705.575
635.912
581.438
555.717
543.862
544.543
551.612
562.22
615.505
609.774
603.854
611.595
717.22
840.067
907.836
935.386
939.651
930.646
911.906
888.518
862.503
833.692
800.449
758.092
700.572
622.416
576.904
551.893
545.887
550.083
559.733
613.408
606.751
600.347
602.368
667.239
809.685
887.871
930.067
950.58
950.106
936.177
916.096
892.511
866.494
837.457
802.306
755.634
681.074
615.466
567.948
551.928
550.198
556.833
614.243
606.983
600.232
598.823
636.475
744.094
853.728
922.391
953.124
962.068
955.755
939.654
919.635
896.745
871.332
841.231
803.578
746.843
667.647
607.334
567.166
552.092
555.038
617.254
609.589
602.567
599.066
619.815
688.017
820.341
896.304
944.527
967.221
968.263
959.007
943.377
924.178
902.271
876.213
844.941
802.207
742.19
659.303
596.498
565.058
556.469
621.938
613.994
606.746
601.92
612.42
653.092
747.681
859.734
928.328
962.011
975.631
972.753
962.943
948.091
929.979
907.637
881.363
847.871
802.889
738.409
645.515
591.068
565.475
627.955
619.804
612.362
606.654
610.915
634.253
693.243
811.212
895.139
951.41
973.408
980.32
976.423
967.128
953.492
935.319
913.467
886.883
852.129
803.996
732.306
639.033
584.531
635.028
626.748
619.129
612.806
613.186
625.903
660.846
738.058
855.28
920.661
962.084
977.674
982.44
979.43
971.466
958.156
941.306
920.482
893.35
856.801
803.075
709.436
631.474
652.454
642.95
634.576
626.829
620.061
617.949
624.113
644.227
690.536
777.569
880.108
933.231
964.513
978.621
983.796
982.286
975.011
963.687
949.003
928.32
900.496
861.24
794.06
698.737
661.233
651.588
643.143
635.293
628.194
624.42
626.426
637.531
664.399
718.349
812.066
892.989
938.665
964.611
978.923
985.14
984.452
979.785
971.367
957.294
937.002
908.563
860.979
790.961
679.625
670.06
660.739
652.312
644.375
637.031
632.106
631.368
636.889
652.158
683.65
743.746
838.851
900.034
940.659
964.645
979.05
986.03
988.232
986.873
979.521
966.532
947.126
914.076
863.884
689.137
679.34
670.361
661.99
653.98
646.449
640.707
638.089
640.006
648.319
666.221
701.178
764.496
848.533
902.53
939.981
963.657
978.507
988.794
994.277
994.235
988.508
977.596
956.086
921.002
698.666
689.17
680.453
672.13
664.062
656.386
650.046
646.091
645.57
649.533
659.384
678.64
715.805
775.554
851.089
901.026
937.132
961.524
979.676
993.443
1000.25
1002.17
999.389
988.221
965.538
708.706
699.516
690.975
682.677
674.566
666.779
659.99
655.055
652.804
653.864
658.755
668.635
688.809
725.129
780.364
848.745
896.688
932.714
961.091
982.198
997.44
1006.48
1011.94
1010.28
998.493
719.289
710.301
701.864
693.576
685.433
677.553
670.426
664.759
661.216
660.199
661.782
665.959
675.811
695.863
730.056
780.073
842.455
890.533
928.511
960.916
983.608
1001.24
1014.49
1022
1020.24
730.299
721.441
713.057
704.769
696.597
688.636
681.248
675.025
670.477
667.872
667.041
667.551
671.162
680.911
699.981
730.956
775.556
833.499
883.665
924.125
958.888
984.55
1006.64
1023.09
1030.79
741.604
732.845
724.488
716.19
707.992
699.955
692.357
685.7
680.338
676.449
673.733
671.709
671.413
674.784
684.002
701.162
728.34
768.365
821.11
875.459
918.009
955.712
986.969
1012.72
1030.24
753.112
744.444
736.103
727.789
719.558
711.439
703.667
696.655
690.611
685.636
681.39
677.492
674.601
673.973
676.97
684.997
699.66
723.587
759.122
807.139
864.322
910.592
953.129
990.005
1017.05
764.767
756.172
747.842
739.515
731.239
723.025
715.102
707.789
701.15
695.227
689.723
684.364
679.639
676.406
675.462
677.631
684.017
696.654
717.635
748.81
792.788
850.434
902.953
949.578
990.251
776.522
767.988
759.659
751.315
742.985
734.673
726.603
719.009
711.839
705.079
698.538
692.004
685.906
680.89
677.383
675.79
676.846
682.095
693.018
710.899
738.052
778.168
833.861
893.063
943.063
788.333
779.856
771.518
763.147
754.758
746.335
738.109
730.238
722.583
715.112
707.7
700.195
693.03
686.74
681.504
677.442
675.055
675.566
679.927
688.804
703.639
727.269
763.644
814.071
878.455
800.17
791.728
783.391
774.982
766.502
757.949
749.573
741.424
733.336
725.262
717.109
708.788
700.779
693.548
687.1
681.362
676.706
674.156
674.28
677.313
684.039
696.309
717.183
749.392
796.689
812.007
803.582
795.236
786.779
778.183
769.483
760.954
752.555
744.085
735.483
726.692
717.689
709.005
701.063
693.731
686.802
680.602
676.025
673.371
672.61
674.127
679.099
689.692
708.175
737.249
823.81
815.403
807.032
798.499
789.773
780.935
772.261
763.63
754.823
745.763
736.408
726.823
717.604
709.126
701.132
693.32
686.021
680.044
675.505
672.216
670.345
670.672
674.761
684.279
700.735
835.57
827.164
818.756
810.137
801.275
792.32
783.51
774.653
765.536
756.083
746.228
736.148
726.508
717.626
709.122
700.623
692.505
685.51
679.62
674.568
670.415
667.719
667.679
671.537
680.006
847.275
838.852
830.396
821.693
812.703
803.633
794.701
785.631
776.224
766.414
756.126
745.639
735.675
726.485
717.573
708.514
699.749
691.967
685.049
678.696
672.925
668.172
665.425
665.677
669.172
858.901
850.455
841.939
833.147
824.038
814.871
805.815
796.545
786.879
776.745
766.074
755.255
745.054
735.628
726.368
716.83
707.527
699.098
691.346
683.968
676.976
670.743
666.129
663.993
664.332
870.443
861.971
853.408
844.515
835.286
826.045
816.876
807.409
797.499
787.085
776.074
764.982
754.612
745.003
735.43
725.452
715.673
706.678
698.206
689.972
682.003
674.637
668.653
664.843
663.086
881.891
873.383
864.771
855.785
846.444
837.137
827.866
818.22
808.086
797.416
786.119
774.804
764.308
754.547
744.667
734.268
724.044
714.52
705.393
696.408
687.612
679.324
672.271
667.208
663.976
893.218
884.677
876.008
866.923
857.496
848.141
838.766
828.96
818.638
807.732
796.18
784.688
774.095
764.187
753.996
743.171
732.507
722.471
712.725
703.051
693.523
684.451
676.518
670.457
666.117
904.397
895.834
887.11
877.922
868.43
859.053
849.584
839.625
829.135
818.023
806.238
794.587
783.917
773.849
763.321
752.059
740.945
730.388
720.036
709.708
699.511
689.743
681.053
674.159
668.949
915.393
906.814
898.047
888.77
879.233
869.846
860.302
850.211
839.565
828.256
816.256
804.454
793.708
783.464
772.551
760.824
749.24
738.144
727.186
716.227
705.404
695.005
685.646
678.042
672.119
926.179
917.586
908.776
899.43
889.885
880.5
870.883
860.69
849.903
838.386
826.17
814.236
803.403
792.937
781.587
769.355
757.269
745.608
734.034
722.461
711.045
700.068
690.119
681.901
675.396
936.723
928.127
919.271
909.87
900.347
890.99
881.311
871.02
860.097
848.361
835.913
823.854
812.92
802.169
790.318
777.53
764.898
752.648
740.452
728.277
716.302
704.801
694.336
685.601
678.638
947.014
938.437
929.544
920.102
910.625
901.306
891.581
881.192
870.112
858.137
845.449
833.258
822.184
811.069
798.637
785.239
772.018
759.154
746.335
733.578
721.082
709.123
698.231
689.086
681.795
957.061
948.51
939.59
930.13
920.722
911.436
901.669
891.184
879.917
867.657
854.72
842.383
831.109
819.533
806.423
792.357
778.505
765.004
751.571
738.265
725.309
712.974
701.759
692.338
684.882
966.848
958.326
949.379
939.935
930.617
921.366
911.545
900.945
889.455
876.869
863.666
851.163
839.597
827.428
813.54
798.746
784.23
770.091
756.075
742.277
728.943
716.338
704.938
695.408
687.981
976.303
967.807
958.843
949.441
940.237
931.015
921.122
910.374
898.617
885.676
872.182
859.457
847.473
834.562
819.802
804.23
789.038
774.277
759.736
745.537
731.938
719.207
707.802
698.374
691.232
985.424
976.959
967.98
958.642
949.56
940.361
930.372
919.428
907.356
894.032
880.211
867.159
854.591
840.769
825.045
808.669
792.817
777.493
762.518
748.041
734.331
721.66
710.471
701.409
694.866
994.205
985.768
976.779
967.519
958.551
949.346
939.234
928.039
915.594
901.85
887.637
874.102
860.743
845.852
829.101
811.937
795.475
779.683
764.409
749.819
736.195
723.813
713.114
704.742
699.194
1002.78
994.372
985.381
976.214
967.344
958.102
947.818
936.325
923.455
909.218
894.478
880.236
865.836
849.721
831.908
813.996
797.016
780.89
765.488
750.991
737.69
725.873
715.99
708.704
704.642
1010.56
1002.16
993.164
984.083
975.268
965.917
955.4
943.556
930.215
915.412
900.007
884.858
869.25
851.867
833.077
814.56
797.238
780.989
765.698
751.56
738.882
727.976
719.312
713.601
711.637
1019.76
1011.41
1002.48
993.564
984.844
975.403
964.628
952.373
938.403
922.711
906.16
889.578
872.328
853.438
833.593
814.494
796.917
780.683
765.692
752.147
740.373
730.716
723.699
720.122
721.012
1021.9
1013.32
1004.19
995.147
986.192
976.364
965.145
952.447
938.028
921.815
904.629
887.255
869.154
849.633
829.614
810.711
793.557
777.963
763.852
751.472
741.184
733.405
728.729
728.071
732.731
1046.82
1039
1030.67
1022.51
1014.27
1004.82
993.571
980.257
964.298
945.432
924.656
903.16
880.966
858.001
835.533
815.082
797.029
781.057
767.067
755.284
746.115
740.057
737.85
740.64
750.19
998.847
988.963
978.671
968.516
958.217
946.841
934.035
919.613
902.991
884.144
864.515
845.79
828.348
811.817
796.517
782.555
770.02
759.032
749.739
742.587
738.16
737.108
740.37
749.243
765.693
1147.01
1143.78
1140.22
1137.38
1134.46
1129.84
1122.87
1112.96
1099.3
1082.56
1064.92
1046.16
1021.84
989.015
948.767
902.804
865.885
837.223
815.053
798.314
786.737
780.639
780.741
788.741
807.762
950.182
944.202
938.754
934.712
931.499
927.97
923.115
915.676
904.547
890.214
873.973
855.538
833.044
806.304
777.919
751.541
731.143
716.032
705.473
699.909
700.459
709.074
728.047
760.261
808.116
1022.92
1005.72
982.878
954.735
921.237
886.545
853.47
825.288
803.608
788.168
777.802
771.156
767.673
767.521
771.012
778.217
789.164
803.182
819.246
836.356
854.231
873.785
895.665
920.12
947.682
1318.05
1124.78
1122.47
1119.29
1116.73
1114.53
1112.59
1110.84
1109.21
1107.66
1106.09
1104.53
1102.97
1101.39
1099.79
1098.14
1096.45
1094.69
1092.85
1090.92
1088.87
1086.69
1084.36
1081.86
1079.17
1076.27
1073.11
1069.69
1065.97
1062.01
1057.83
1053.51
1049.11
1044.66
1040.19
1035.71
1031.25
1026.79
1022.33
1017.91
1013.67
1009.75
1006.28
1003.41
1001.23
999.757
999.013
998.968
999.623
1001.03
1003.24
1006.27
1010.13
1014.78
1020.14
1026.16
1032.77
1039.91
1047.58
1055.79
1064.64
1074.19
1084.58
1095.88
1108.08
1120.73
1132.35
1143.85
1155.11
1166.45
1177.88
1189.15
1199.51
1207.74
1212.29
1211.07
1202.07
1184.62
1160.91
1139.8
1128.93
1130.74
1142.21
1159.45
1183.45
1215.77
1248.19
1261.97
1261.75
1257.84
1253.2
1247.24
1238.35
1224.54
1202.88
1167.38
1108.33
1042.85
991.617
1095.47
1128.96
1126.86
1124.71
1122.83
1121.16
1119.74
1118.5
1117.43
1116.48
1115.63
1114.88
1114.18
1113.55
1112.95
1112.39
1111.86
1111.35
1110.87
1110.4
1109.9
1109.32
1108.65
1108.03
1107.5
1107.07
1106.76
1106.62
1106.66
1106.92
1107.4
1108.11
1109.07
1110.31
1111.84
1113.69
1115.52
1117.42
1119.58
1122.26
1125.51
1129.28
1133.54
1138.27
1143.47
1149.03
1154.76
1160.47
1166.11
1171.67
1177.2
1182.79
1188.61
1194.76
1201
1207.32
1213.65
1219.81
1225.66
1231.14
1236.26
1241.09
1245.65
1249.89
1253.87
1257.73
1261.34
1264.4
1266.5
1267.35
1267.1
1266.12
1263.69
1257.55
1246.6
1229.19
1200.6
1156.82
1090.98
1032.96
1000.42
1000.67
1020.16
1045.13
1080.56
1149.18
1262.23
1303.26
1299.2
1286.14
1273.94
1262.97
1249.07
1226.07
1187.39
1128.09
1044.19
953.583
875.127
1111.74
1126.4
1125.27
1123.72
1122.3
1121.02
1119.94
1119
1118.22
1117.55
1117
1116.55
1116.2
1115.94
1115.76
1115.66
1115.63
1115.68
1115.79
1115.96
1116.19
1116.48
1116.8
1117.16
1117.56
1117.96
1118.39
1118.82
1119.23
1119.64
1120.02
1120.37
1120.69
1120.96
1121.18
1121.32
1121.4
1121.37
1121.24
1121.08
1121.02
1121.21
1121.58
1122.07
1122.64
1123.43
1124.45
1125.52
1126.45
1127.21
1127.83
1128.33
1128.84
1129.61
1130.56
1131.67
1133.05
1134.59
1136.21
1137.91
1139.67
1141.51
1143.53
1145.73
1148.13
1150.8
1153.74
1156.92
1160.32
1163.87
1167.51
1171.5
1176.44
1181.83
1187.05
1192.89
1198.94
1203.58
1206.86
1211.07
1218.87
1235.56
1264.58
1300.95
1329.15
1336.68
1324.6
1304.85
1287.56
1273.25
1261.4
1249.67
1230.77
1193.34
1129.5
1043.59
959.891
891.572
842.982
1114.07
1125.55
1125.11
1124.11
1123.13
1122.23
1121.47
1120.82
1120.29
1119.86
1119.52
1119.26
1119.07
1118.94
1118.86
1118.83
1118.84
1118.89
1118.96
1119.06
1119.18
1119.31
1119.45
1119.58
1119.71
1119.82
1119.91
1120
1120.06
1120.1
1120.06
1120
1119.88
1119.7
1119.46
1119.16
1118.78
1118.32
1117.79
1117.15
1116.48
1116.04
1115.88
1115.97
1116.19
1116.55
1117.23
1118.14
1119.07
1119.91
1120.68
1121.39
1121.99
1122.89
1124.11
1125.52
1127.23
1129.15
1131.13
1133.2
1135.3
1137.41
1139.61
1141.95
1144.45
1147.16
1150.07
1153.12
1156.25
1159.37
1162.37
1165.29
1168.64
1171.95
1174.22
1175.77
1176.23
1173.98
1168.97
1164.25
1165.85
1181.73
1217.27
1264.17
1298.18
1307.45
1301.88
1290.94
1277.88
1264.44
1251.06
1233.54
1199.27
1133.99
1039.65
952.335
882.063
829.821
793.413
1115.19
1123.63
1123.65
1123.02
1122.38
1121.78
1121.28
1120.87
1120.55
1120.32
1120.16
1120.08
1120.05
1120.09
1120.16
1120.27
1120.42
1120.6
1120.79
1121.01
1121.23
1121.46
1121.69
1121.89
1122.07
1122.22
1122.33
1122.41
1122.46
1122.46
1122.42
1122.32
1122.15
1121.91
1121.59
1121.2
1120.74
1120.21
1119.6
1118.91
1118.13
1117.43
1117.05
1116.96
1117.12
1117.4
1117.97
1118.89
1119.96
1121.01
1121.95
1122.86
1123.74
1124.85
1126.33
1128.03
1130.03
1132.34
1134.81
1137.41
1140.09
1142.83
1145.68
1148.71
1151.97
1155.44
1159.13
1163.01
1167.04
1171.15
1175.2
1179.11
1183.43
1188.07
1191.92
1195.08
1197.58
1197.91
1195.21
1191.93
1193.71
1208.4
1240.87
1281.4
1307.39
1310.22
1300.98
1287.23
1271.96
1256.3
1238.84
1211.16
1157.3
1068.26
972.42
894.418
837.079
796.659
769.449
1115.23
1121.96
1122.1
1121.75
1121.35
1120.98
1120.69
1120.46
1120.3
1120.2
1120.15
1120.16
1120.2
1120.28
1120.38
1120.48
1120.59
1120.71
1120.84
1120.97
1121.09
1121.21
1121.3
1121.38
1121.4
1121.38
1121.32
1121.24
1121.13
1120.97
1120.78
1120.53
1120.23
1119.86
1119.43
1118.92
1118.35
1117.72
1117.03
1116.29
1115.49
1114.64
1114.05
1113.79
1113.82
1114.05
1114.5
1115.31
1116.4
1117.56
1118.67
1119.76
1120.78
1121.92
1123.44
1125.24
1127.32
1129.75
1132.38
1135.15
1138.04
1141
1144.05
1147.31
1150.8
1154.5
1158.41
1162.53
1166.82
1171.23
1175.65
1179.86
1184.32
1189.24
1193.61
1197.08
1199.87
1200.95
1199.04
1196.11
1197.81
1212.48
1245.21
1284.52
1306.57
1306.02
1294.83
1279.64
1262.99
1244.63
1220
1173.73
1089.51
983.889
897.934
835.514
792.163
763.197
744.839
1113.86
1120.76
1120.16
1119.98
1119.74
1119.53
1119.37
1119.27
1119.21
1119.2
1119.22
1119.27
1119.35
1119.45
1119.54
1119.61
1119.69
1119.77
1119.84
1119.91
1119.97
1120.02
1120.06
1120.06
1120.01
1119.93
1119.82
1119.69
1119.54
1119.36
1119.14
1118.89
1118.59
1118.25
1117.84
1117.39
1116.89
1116.34
1115.75
1115.11
1114.42
1113.68
1113.03
1112.75
1112.78
1113.07
1113.58
1114.39
1115.57
1116.91
1118.24
1119.52
1120.79
1122.09
1123.75
1125.72
1128
1130.67
1133.58
1136.66
1139.89
1143.22
1146.66
1150.3
1154.19
1158.3
1162.62
1167.14
1171.85
1176.73
1181.67
1186.37
1191.14
1196.44
1201.53
1205.6
1208.87
1210.84
1209.91
1207.33
1208.53
1222
1252.76
1288.33
1305.36
1302.04
1288.98
1272.17
1253.4
1230.19
1192.32
1117.73
1006.51
910.159
839.401
790.784
759.102
739.398
727.765
1111.01
1120.88
1118.03
1117.89
1117.73
1117.61
1117.52
1117.48
1117.47
1117.49
1117.52
1117.58
1117.64
1117.71
1117.76
1117.78
1117.81
1117.83
1117.84
1117.84
1117.85
1117.84
1117.83
1117.79
1117.72
1117.62
1117.51
1117.38
1117.24
1117.07
1116.88
1116.65
1116.4
1116.11
1115.78
1115.42
1115.01
1114.55
1114.05
1113.5
1112.91
1112.29
1111.64
1111.27
1111.24
1111.5
1112
1112.78
1113.97
1115.42
1116.94
1118.4
1119.87
1121.34
1123.11
1125.21
1127.63
1130.47
1133.6
1136.94
1140.45
1144.11
1147.9
1151.87
1156.1
1160.57
1165.24
1170.12
1175.21
1180.49
1185.91
1191.08
1196.13
1201.71
1207.42
1212.11
1215.76
1218.44
1218.53
1216.48
1217.25
1229.43
1257.94
1289.71
1302.43
1297.04
1282.37
1263.75
1241.84
1210.71
1151.22
1040.19
929.386
846.566
790.399
754.626
732.978
720.624
714.245
1106.57
1122.69
1115.74
1115.53
1115.4
1115.29
1115.23
1115.2
1115.19
1115.21
1115.23
1115.26
1115.3
1115.33
1115.35
1115.36
1115.36
1115.36
1115.35
1115.35
1115.34
1115.33
1115.32
1115.3
1115.28
1115.26
1115.22
1115.17
1115.1
1115.01
1114.89
1114.74
1114.56
1114.35
1114.09
1113.8
1113.47
1113.09
1112.68
1112.23
1111.74
1111.21
1110.65
1110.21
1110.12
1110.36
1110.86
1111.64
1112.79
1114.33
1116.02
1117.72
1119.4
1121.1
1123.01
1125.27
1127.85
1130.87
1134.25
1137.87
1141.69
1145.71
1149.87
1154.22
1158.8
1163.64
1168.69
1173.95
1179.42
1185.11
1190.97
1196.62
1201.98
1207.78
1214.02
1219.35
1223.36
1226.57
1227.58
1226.05
1226.26
1236.67
1262.16
1289.7
1298.58
1291.52
1275.27
1254.45
1227.88
1184.38
1092.83
960.509
860.337
794.242
752.243
726.979
713.141
706.516
704.154
1101.97
1124.72
1113.44
1113.04
1112.91
1112.79
1112.72
1112.68
1112.66
1112.65
1112.66
1112.67
1112.68
1112.7
1112.73
1112.76
1112.79
1112.83
1112.87
1112.91
1112.96
1113
1113.04
1113.08
1113.11
1113.13
1113.14
1113.14
1113.11
1113.07
1113.01
1112.92
1112.8
1112.64
1112.46
1112.23
1111.97
1111.67
1111.34
1110.97
1110.57
1110.14
1109.69
1109.25
1109.09
1109.28
1109.77
1110.54
1111.67
1113.24
1115.09
1117.01
1118.92
1120.87
1122.94
1125.37
1128.12
1131.3
1134.94
1138.84
1142.98
1147.35
1151.89
1156.61
1161.54
1166.75
1172.19
1177.82
1183.67
1189.72
1195.99
1202.1
1207.78
1213.77
1220.39
1226.35
1230.73
1234.27
1236.05
1235.05
1234.67
1243.03
1265.09
1288.31
1293.97
1285.45
1267.61
1244.01
1210.78
1148.6
1015.48
887.827
804.364
753.218
722.669
705.846
698.16
695.864
696.46
1098.22
1125.46
1111.17
1110.6
1110.47
1110.35
1110.26
1110.22
1110.2
1110.2
1110.21
1110.23
1110.26
1110.3
1110.34
1110.39
1110.44
1110.5
1110.57
1110.64
1110.71
1110.79
1110.86
1110.94
1111.01
1111.08
1111.13
1111.18
1111.21
1111.22
1111.21
1111.18
1111.12
1111.03
1110.9
1110.75
1110.56
1110.34
1110.09
1109.81
1109.5
1109.18
1108.83
1108.46
1108.26
1108.4
1108.88
1109.64
1110.76
1112.32
1114.29
1116.43
1118.59
1120.79
1123.08
1125.69
1128.64
1131.98
1135.87
1140.06
1144.51
1149.24
1154.16
1159.25
1164.55
1170.12
1175.94
1181.95
1188.15
1194.54
1201.17
1207.69
1213.7
1219.84
1226.67
1233.16
1237.92
1241.63
1243.94
1243.44
1242.46
1248.57
1266.87
1285.7
1288.78
1278.96
1259.42
1232.39
1190.23
1102.99
942.327
827.054
759.509
721.311
700.299
690.074
686.936
687.792
690.544
1094.89
1125.3
1108.89
1108.18
1108.07
1107.95
1107.87
1107.83
1107.82
1107.82
1107.84
1107.87
1107.91
1107.95
1108.01
1108.08
1108.15
1108.23
1108.33
1108.42
1108.53
1108.64
1108.75
1108.86
1108.98
1109.09
1109.19
1109.28
1109.36
1109.42
1109.47
1109.49
1109.49
1109.46
1109.4
1109.32
1109.21
1109.07
1108.9
1108.71
1108.5
1108.27
1108.03
1107.78
1107.59
1107.68
1108.15
1108.9
1110.01
1111.57
1113.61
1115.94
1118.36
1120.81
1123.35
1126.19
1129.34
1132.86
1136.96
1141.46
1146.23
1151.29
1156.59
1162.07
1167.74
1173.65
1179.83
1186.2
1192.72
1199.42
1206.35
1213.21
1219.55
1225.79
1232.67
1239.52
1244.67
1248.44
1251
1250.9
1249.38
1253.19
1267.61
1282.25
1283.15
1272.09
1250.75
1219.6
1165.96
1044.1
876.159
777.328
724.946
697.481
683.624
678.311
678.519
681.606
685.849
1091.84
1124.45
1106.59
1105.78
1105.69
1105.58
1105.52
1105.49
1105.48
1105.5
1105.53
1105.57
1105.62
1105.68
1105.75
1105.83
1105.92
1106.03
1106.14
1106.26
1106.39
1106.53
1106.68
1106.83
1106.98
1107.13
1107.27
1107.41
1107.54
1107.66
1107.76
1107.84
1107.9
1107.93
1107.95
1107.94
1107.9
1107.84
1107.76
1107.67
1107.56
1107.44
1107.31
1107.19
1107.08
1107.15
1107.58
1108.35
1109.46
1111.01
1113.08
1115.55
1118.22
1120.95
1123.76
1126.82
1130.2
1133.93
1138.22
1143.03
1148.11
1153.48
1159.16
1165.03
1171.07
1177.31
1183.81
1190.5
1197.31
1204.27
1211.43
1218.55
1225.16
1231.47
1238.24
1245.27
1250.75
1254.52
1257.1
1257.24
1255.25
1256.86
1267.46
1278.24
1277.16
1264.92
1241.71
1205.96
1138.95
976.74
821.376
738.73
698.765
679.678
671.343
669.654
672.177
676.734
681.949
1089
1123.03
1104.27
1103.38
1103.32
1103.24
1103.19
1103.18
1103.19
1103.22
1103.26
1103.31
1103.37
1103.44
1103.53
1103.62
1103.73
1103.85
1103.98
1104.12
1104.28
1104.45
1104.62
1104.8
1104.99
1105.18
1105.37
1105.56
1105.74
1105.91
1106.06
1106.2
1106.33
1106.43
1106.52
1106.59
1106.63
1106.66
1106.68
1106.68
1106.67
1106.67
1106.66
1106.67
1106.68
1106.79
1107.19
1107.98
1109.09
1110.63
1112.7
1115.28
1118.16
1121.17
1124.26
1127.55
1131.19
1135.17
1139.63
1144.7
1150.1
1155.78
1161.79
1168.04
1174.44
1181.01
1187.77
1194.74
1201.81
1208.98
1216.31
1223.57
1230.39
1236.74
1243.28
1250.26
1255.99
1259.73
1262.11
1262.3
1259.96
1259.59
1266.53
1273.76
1270.92
1257.53
1232.44
1191.96
1111.41
920.958
776.939
709.014
679.454
666.865
662.521
663.316
667.334
672.772
678.536
1086.32
1121.1
1101.92
1100.98
1100.96
1100.91
1100.89
1100.9
1100.93
1100.98
1101.03
1101.09
1101.16
1101.24
1101.33
1101.43
1101.55
1101.68
1101.83
1101.99
1102.17
1102.36
1102.57
1102.78
1103
1103.23
1103.47
1103.7
1103.93
1104.16
1104.37
1104.58
1104.77
1104.95
1105.11
1105.26
1105.4
1105.52
1105.63
1105.74
1105.85
1105.96
1106.09
1106.22
1106.38
1106.59
1107
1107.78
1108.93
1110.46
1112.53
1115.16
1118.22
1121.5
1124.87
1128.41
1132.32
1136.56
1141.22
1146.51
1152.22
1158.2
1164.51
1171.11
1177.85
1184.73
1191.73
1198.91
1206.19
1213.51
1220.91
1228.22
1235.15
1241.49
1247.71
1254.42
1260.26
1263.96
1266.01
1266.04
1263.41
1261.38
1264.94
1268.94
1264.46
1249.96
1223.07
1177.92
1083.18
872.189
742.518
687.321
665.758
657.895
656.335
658.75
663.598
669.424
675.396
1083.79
1118.78
1099.55
1098.59
1098.62
1098.6
1098.61
1098.65
1098.7
1098.76
1098.82
1098.89
1098.97
1099.05
1099.15
1099.26
1099.38
1099.52
1099.68
1099.86
1100.05
1100.27
1100.5
1100.74
1101
1101.27
1101.55
1101.83
1102.11
1102.39
1102.67
1102.95
1103.21
1103.47
1103.71
1103.95
1104.18
1104.41
1104.63
1104.85
1105.08
1105.32
1105.58
1105.87
1106.17
1106.52
1107
1107.78
1108.97
1110.52
1112.57
1115.24
1118.42
1121.93
1125.61
1129.41
1133.57
1138.07
1142.96
1148.46
1154.46
1160.73
1167.31
1174.2
1181.27
1188.43
1195.65
1202.97
1210.37
1217.78
1225.16
1232.41
1239.33
1245.58
1251.42
1257.68
1263.47
1267.1
1268.75
1268.46
1265.56
1262.24
1262.81
1263.9
1257.82
1242.22
1213.67
1164.28
1056.35
833.453
716.972
672.061
656.648
652.122
652.319
655.586
660.702
666.514
672.404
1081.35
1116.11
1097.14
1096.2
1096.28
1096.3
1096.35
1096.42
1096.49
1096.56
1096.63
1096.7
1096.78
1096.87
1096.97
1097.08
1097.21
1097.35
1097.52
1097.71
1097.92
1098.15
1098.4
1098.68
1098.97
1099.27
1099.59
1099.93
1100.26
1100.61
1100.95
1101.3
1101.64
1101.98
1102.32
1102.65
1102.98
1103.31
1103.66
1104
1104.36
1104.74
1105.15
1105.59
1106.06
1106.57
1107.17
1108
1109.21
1110.8
1112.85
1115.52
1118.8
1122.5
1126.45
1130.54
1134.93
1139.7
1144.82
1150.51
1156.76
1163.33
1170.15
1177.28
1184.62
1192.01
1199.42
1206.82
1214.26
1221.66
1228.92
1236.02
1242.82
1248.9
1254.32
1260
1265.55
1269.09
1270.33
1269.58
1266.44
1262.15
1260.18
1258.63
1250.98
1234.24
1204.17
1151.04
1032.13
805.842
699.403
662.644
651.559
649.093
650.149
653.615
658.513
663.96
669.515
1078.92
1113.27
1094.71
1093.81
1093.94
1094.02
1094.1
1094.2
1094.29
1094.37
1094.45
1094.53
1094.61
1094.69
1094.79
1094.89
1095.02
1095.17
1095.34
1095.53
1095.75
1096
1096.27
1096.57
1096.89
1097.24
1097.6
1097.98
1098.37
1098.78
1099.19
1099.61
1100.04
1100.47
1100.9
1101.33
1101.78
1102.23
1102.7
1103.18
1103.68
1104.21
1104.77