/*--------------------------------*- C++ -*----------------------------------*\
  =========                 |
  \\      /  F ield         | OpenFOAM: The Open Source CFD Toolbox
   \\    /   O peration     | Website:  https://openfoam.org
    \\  /    A nd           | Version:  9
     \\/     M anipulation  |
\*---------------------------------------------------------------------------*/
FoamFile
{
    format      ascii;
    class       volVectorField;
    location    "750";
    object      U;
}
// * * * * * * * * * * * * * * * * * * * * * * * * * * * * * * * * * * * * * //

dimensions      [0 1 -1 0 0 0 0];

internalField   nonuniform List<vector> 
13354
(
(0.732428 -0.547425 1.8343e-20)
(0.64475 -0.545316 0)
(0.553694 -0.527256 -6.57912e-21)
(0.463237 -0.495117 1.02423e-20)
(0.375705 -0.451172 4.87931e-21)
(0.291505 -0.397795 -3.61703e-21)
(0.2094 -0.33741 0)
(0.126041 -0.272968 4.50679e-21)
(0.0367707 -0.20526 0)
(-0.0687297 -0.13793 -2.6236e-20)
(-0.187609 -0.0698695 -1.52682e-20)
(-0.259576 -0.0331448 1.62071e-20)
(-0.197711 0.0831961 -4.27245e-20)
(0.762035 -0.483927 -1.15004e-20)
(0.692178 -0.489417 0)
(0.61757 -0.482434 9.66286e-22)
(0.541247 -0.463262 4.82453e-21)
(0.465302 -0.432978 -5.53447e-21)
(0.390435 -0.39317 1.38977e-20)
(0.315642 -0.345546 -1.67963e-20)
(0.238121 -0.292363 2.47175e-20)
(0.154169 -0.234807 -8.98636e-20)
(0.0591456 -0.176487 5.27667e-20)
(-0.051733 -0.107931 -4.11672e-20)
(-0.154689 -0.054591 8.37204e-20)
(-0.192624 0.042739 2.04983e-20)
(0.783067 -0.427555 -4.41706e-21)
(0.726042 -0.435109 0)
(0.664475 -0.433651 -9.68725e-22)
(0.600376 -0.422589 4.29574e-21)
(0.535357 -0.402021 6.43995e-21)
(0.470112 -0.372589 -1.77651e-20)
(0.403544 -0.335131 3.33896e-20)
(0.332792 -0.290763 1.74914e-20)
(0.253393 -0.240432 -4.4867e-21)
(0.160894 -0.186433 3.66194e-20)
(0.0516469 -0.126462 6.16711e-21)
(-0.08369 -0.064069 0)
(-0.110977 0.0439499 -1.67818e-19)
(0.793797 -0.379033 1.67618e-22)
(0.745913 -0.386192 0)
(0.694327 -0.386774 0)
(0.640256 -0.380037 1.56405e-21)
(0.584936 -0.365656 -6.32057e-21)
(0.528876 -0.343625 2.14547e-20)
(0.471088 -0.314241 -5.02094e-20)
(0.408649 -0.277706 2.40927e-21)
(0.336447 -0.234614 -2.54556e-20)
(0.248528 -0.186647 3.44604e-20)
(0.145087 -0.132017 -7.48538e-20)
(0.0168342 -0.0799643 5.92224e-20)
(-0.0725895 0.0238856 2.27404e-19)
(0.801403 -0.337889 -4.81147e-21)
(0.760385 -0.344113 1.50948e-20)
(0.716633 -0.345265 -1.9185e-20)
(0.67082 -0.340674 2.03801e-20)
(0.623822 -0.329905 -1.58033e-20)
(0.576082 -0.312724 -2.38425e-20)
(0.526783 -0.289205 3.99624e-20)
(0.472999 -0.259058 1.81429e-20)
(0.409015 -0.222372 2.06077e-20)
(0.327536 -0.180774 3.07314e-20)
(0.227566 -0.129435 -2.15728e-20)
(0.0967248 -0.0927714 -4.52366e-20)
(-0.00141402 -0.0140686 -3.58789e-19)
(0.808264 -0.302718 -1.87291e-21)
(0.772672 -0.308143 -2.61703e-22)
(0.73522 -0.309399 -1.25991e-20)
(0.696279 -0.305882 1.26475e-20)
(0.656463 -0.297164 -1.88445e-21)
(0.616138 -0.282977 -2.3973e-20)
(0.574614 -0.263395 0)
(0.529146 -0.237911 -3.51024e-20)
(0.473704 -0.206318 2.22898e-20)
(0.400165 -0.169797 2.86557e-20)
(0.300713 -0.122171 1.06715e-19)
(0.156689 -0.0955953 -3.9265e-20)
(0.0896592 -0.0361108 2.03342e-19)
(0.813992 -0.272018 6.00557e-21)
(0.782845 -0.276754 1.07203e-20)
(0.750651 -0.27793 1.53124e-21)
(0.7176 -0.275016 -1.54146e-20)
(0.684096 -0.267601 3.93015e-20)
(0.650418 -0.25542 2.369e-20)
(0.616 -0.238557 2.93313e-20)
(0.578344 -0.216327 0)
(0.531534 -0.188698 3.9703e-22)
(0.466905 -0.155649 6.83354e-20)
(0.368389 -0.112246 -1.12974e-19)
(0.207516 -0.087252 1.74156e-20)
(0.182492 -0.0359637 1.70579e-19)
(0.818585 -0.244641 -1.51228e-20)
(0.791259 -0.248631 0)
(0.763559 -0.249547 1.55172e-21)
(0.735631 -0.246992 -1.54723e-20)
(0.707762 -0.240608 -2.00152e-20)
(0.680118 -0.230052 -2.41967e-20)
(0.652161 -0.215334 -1.36541e-20)
(0.621702 -0.195654 1.76172e-20)
(0.583458 -0.171368 -8.14977e-20)
(0.528337 -0.140839 -9.99708e-20)
(0.435906 -0.102046 0)
(0.259628 -0.0703417 0)
(0.273538 -0.0225404 -1.2782e-19)
(0.822699 -0.219746 1.59674e-20)
(0.798764 -0.2228 0)
(0.774915 -0.22324 0)
(0.751403 -0.220858 0)
(0.728498 -0.215395 0)
(0.706233 -0.206403 2.40682e-20)
(0.684061 -0.193748 -1.46978e-20)
(0.660078 -0.176587 -1.73129e-20)
(0.629935 -0.155497 3.872e-20)
(0.58474 -0.127689 1.02336e-21)
(0.504958 -0.0936055 -5.7263e-20)
(0.322407 -0.0523742 1.0954e-19)
(0.349726 -0.00111084 -1.38303e-20)
(0.827034 -0.196632 -1.71469e-20)
(0.806134 -0.198525 -1.04443e-21)
(0.785529 -0.198323 1.42843e-20)
(0.765647 -0.196006 8.28775e-22)
(0.746814 -0.191428 -1.05794e-20)
(0.72905 -0.184113 -1.18581e-20)
(0.711833 -0.173774 -1.24549e-20)
(0.693496 -0.159549 -1.49633e-20)
(0.67065 -0.141838 -5.34418e-20)
(0.635388 -0.117748 6.23102e-20)
(0.571999 -0.0881311 5.08246e-20)
(0.403211 -0.0426979 -1.49616e-19)
(0.403946 0.0202791 9.21189e-20)
(0.831997 -0.175352 9.14356e-21)
(0.813717 -0.176101 -1.1582e-20)
(0.795674 -0.175238 2.80416e-20)
(0.778441 -0.172963 8.30261e-21)
(0.762529 -0.169306 -9.23417e-21)
(0.748079 -0.163836 2.28764e-20)
(0.734711 -0.156132 2.62356e-20)
(0.72105 -0.145328 0)
(0.704481 -0.131374 3.36602e-20)
(0.678648 -0.112037 9.54443e-21)
(0.632139 -0.0866163 -2.16515e-20)
(0.496194 -0.0455753 7.95946e-20)
(0.447541 0.0291721 -8.56686e-20)
(0.837215 -0.157292 -6.72696e-22)
(0.821037 -0.157576 -1.10936e-20)
(0.804765 -0.156512 -1.38481e-20)
(0.789094 -0.154576 -2.4758e-20)
(0.774775 -0.151965 2.68351e-20)
(0.762239 -0.148329 -3.17843e-20)
(0.751387 -0.143251 -1.19539e-20)
(0.741265 -0.135982 1.39935e-20)
(0.729861 -0.126021 -6.81366e-21)
(0.712527 -0.111844 -8.13949e-21)
(0.681321 -0.0909161 0)
(0.585467 -0.0591437 -5.70387e-21)
(0.50106 0.0177343 7.57074e-21)
(0.840781 -0.144171 9.41161e-22)
(0.826113 -0.145683 1.10291e-20)
(0.81094 -0.145872 0)
(0.795993 -0.145264 1.44931e-20)
(0.782219 -0.144108 -1.7613e-20)
(0.770345 -0.142218 1.07829e-21)
(0.760692 -0.139356 2.26666e-20)
(0.75289 -0.135054 -1.27229e-20)
(0.74553 -0.12865 2.00615e-20)
(0.735447 -0.119073 -7.2104e-21)
(0.717161 -0.102956 3.19691e-20)
(0.658345 -0.0799524 -2.3456e-21)
(0.576857 -0.0137646 2.82725e-21)
(0.839454 -0.136521 -8.5431e-21)
(0.825584 -0.141607 0)
(0.811209 -0.145283 1.25552e-20)
(0.796788 -0.147714 -4.01543e-20)
(0.783265 -0.148998 1.50439e-20)
(0.771579 -0.1491 1.81621e-20)
(0.762413 -0.148083 -1.03182e-20)
(0.755992 -0.145846 1.05424e-20)
(0.751636 -0.141949 6.19321e-21)
(0.747426 -0.135595 -3.17897e-20)
(0.739621 -0.123713 -2.54323e-20)
(0.709993 -0.106956 5.95936e-20)
(0.65104 -0.0573315 -2.21334e-21)
(0.830185 -0.133221 7.68104e-21)
(0.816206 -0.143666 8.67316e-21)
(0.80254 -0.152689 0)
(0.789131 -0.159815 1.92579e-20)
(0.776576 -0.164833 -2.1017e-20)
(0.765704 -0.167732 -1.51528e-20)
(0.75735 -0.168764 -1.69624e-20)
(0.752195 -0.168094 0)
(0.750254 -0.165741 -2.05398e-20)
(0.750732 -0.161131 2.35044e-20)
(0.751225 -0.152267 0)
(0.742532 -0.139361 -5.46873e-20)
(0.710077 -0.104597 0)
(0.811471 -0.132732 -2.19042e-20)
(0.796357 -0.148644 2.45372e-20)
(0.783332 -0.163371 -1.9957e-20)
(0.771797 -0.175854 1.0525e-20)
(0.761584 -0.185455 0)
(0.753041 -0.191937 1.44536e-20)
(0.746832 -0.195575 1.09822e-21)
(0.743825 -0.196618 0)
(0.744569 -0.195474 1.91828e-20)
(0.749166 -0.191756 -1.9552e-20)
(0.756326 -0.184791 -2.78341e-21)
(0.761951 -0.173917 2.8239e-21)
(0.752167 -0.14997 0)
(0.784029 -0.134687 7.52659e-21)
(0.766996 -0.154597 -1.57253e-21)
(0.754426 -0.173639 9.43607e-21)
(0.745347 -0.19056 0)
(0.738783 -0.204368 0)
(0.734274 -0.214512 1.8497e-20)
(0.732014 -0.221055 7.7556e-21)
(0.732765 -0.224127 0)
(0.737297 -0.224355 -1.58768e-20)
(0.746277 -0.221393 1.83466e-20)
(0.759265 -0.215805 0)
(0.774849 -0.205942 -1.31136e-21)
(0.782156 -0.189355 1.33151e-21)
(0.750154 -0.139608 2.30008e-20)
(0.731055 -0.161404 -2.19474e-20)
(0.718692 -0.18244 0)
(0.712088 -0.201693 0)
(0.70978 -0.218149 -1.49573e-20)
(0.71055 -0.230991 -5.03054e-22)
(0.713896 -0.23999 -1.75535e-20)
(0.720123 -0.245001 1.28388e-20)
(0.729879 -0.246745 1.52056e-20)
(0.744079 -0.244676 -3.02683e-20)
(0.762819 -0.240381 2.19135e-21)
(0.786082 -0.231116 -2.18801e-21)
(0.806034 -0.219661 -3.71921e-20)
(0.712265 -0.147422 -1.60918e-20)
(0.691768 -0.169499 1.82661e-20)
(0.679713 -0.190574 -1.02832e-21)
(0.675332 -0.21004 -7.58627e-21)
(0.67719 -0.227136 2.64866e-20)
(0.683688 -0.241013 0)
(0.69364 -0.251276 1.14983e-20)
(0.706654 -0.257481 -1.25276e-20)
(0.722965 -0.260334 2.44796e-20)
(0.743423 -0.258989 3.28637e-20)
(0.768399 -0.255762 -3.20571e-20)
(0.798566 -0.246784 2.82824e-20)
(0.828494 -0.23893 3.73568e-20)
(0.67228 -0.157312 0)
(0.651453 -0.178732 -1.74043e-20)
(0.640257 -0.198721 1.70308e-20)
(0.638155 -0.216973 2.27261e-20)
(0.643985 -0.23303 -3.88035e-20)
(0.656145 -0.246231 -1.61099e-20)
(0.673014 -0.256247 -5.02813e-21)
(0.693496 -0.262437 1.04092e-20)
(0.717284 -0.265531 -2.94044e-20)
(0.744995 -0.264202 -3.17777e-21)
(0.776975 -0.261462 3.08809e-20)
(0.814207 -0.252202 -2.94827e-20)
(0.85271 -0.246741 2.78913e-20)
(0.631375 -0.168257 0)
(0.611335 -0.188627 2.69043e-21)
(0.601854 -0.206997 -3.2182e-21)
(0.602706 -0.223212 5.42147e-21)
(0.612892 -0.237039 2.59504e-21)
(0.630828 -0.248122 2.54145e-20)
(0.654656 -0.256374 3.82794e-21)
(0.682836 -0.261144 -1.60856e-20)
(0.714702 -0.263252 1.75433e-20)
(0.750391 -0.260866 0)
(0.790017 -0.257817 -2.90894e-21)
(0.834553 -0.247534 2.87659e-21)
(0.880604 -0.243626 -2.74225e-20)
(0.589988 -0.178894 -3.703e-21)
(0.572402 -0.197925 -7.3906e-21)
(0.566091 -0.214226 -2.5562e-21)
(0.57115 -0.227821 7.70283e-21)
(0.586557 -0.238705 1.18819e-20)
(0.610663 -0.246746 -2.34314e-20)
(0.641599 -0.252089 -1.13465e-20)
(0.677721 -0.254181 1.99022e-20)
(0.718035 -0.254065 -7.50753e-21)
(0.762008 -0.249547 1.50457e-20)
(0.809401 -0.245441 -1.64022e-20)
(0.860847 -0.233491 0)
(0.913065 -0.230721 -1.90865e-20)
(0.548772 -0.18788 2.11794e-21)
(0.535913 -0.205095 3.82106e-21)
(0.534795 -0.218686 -5.14588e-21)
(0.545704 -0.22898 -7.73945e-21)
(0.567625 -0.236197 0)
(0.598848 -0.240431 1.02485e-20)
(0.637413 -0.242034 3.90712e-21)
(0.681536 -0.240672 -5.73955e-21)
(0.730027 -0.237589 -1.68424e-20)
(0.781702 -0.230387 -1.53077e-20)
(0.836177 -0.225004 2.83666e-21)
(0.893363 -0.210976 1.86158e-21)
(0.949813 -0.209617 1.94326e-20)
(0.509651 -0.192719 0)
(0.504243 -0.207345 -7.04379e-22)
(0.510459 -0.217756 -4.00387e-21)
(0.528919 -0.224298 1.15091e-21)
(0.558777 -0.227274 0)
(0.598067 -0.227151 -2.29116e-21)
(0.644679 -0.224501 7.80717e-21)
(0.696815 -0.219242 8.88784e-21)
(0.752892 -0.212779 -4.97907e-21)
(0.811048 -0.202899 0)
(0.870967 -0.196214 2.10009e-20)
(0.931743 -0.180232 7.65783e-21)
(0.990369 -0.180657 -7.19508e-22)
(0.475235 -0.191579 1.692e-21)
(0.47951 -0.202522 -4.65076e-21)
(0.495682 -0.208648 0)
(0.524203 -0.210524 0)
(0.56345 -0.208829 -3.28464e-21)
(0.611104 -0.204297 2.50959e-21)
(0.66545 -0.197476 1.55079e-22)
(0.724822 -0.188453 -7.17812e-22)
(0.787033 -0.178844 6.21345e-21)
(0.850124 -0.166712 -6.31295e-24)
(0.914011 -0.158292 -8.4477e-21)
(0.976491 -0.140822 -8.23496e-21)
(1.0357 -0.142702 -1.07612e-40)
(0.450411 -0.181606 9.11342e-21)
(0.466397 -0.187905 -4.19297e-21)
(0.494411 -0.18885 0)
(0.533962 -0.185589 0)
(0.583249 -0.178829 1.23152e-20)
(0.640314 -0.169214 8.28032e-21)
(0.70263 -0.15796 0)
(0.768071 -0.145417 0)
(0.834571 -0.132945 7.08753e-21)
(0.900618 -0.11915 3.26426e-21)
(0.966048 -0.108942 -3.12936e-23)
(1.02787 -0.0914242 3.10481e-23)
(1.08597 -0.0941612 0)
(0.43946 -0.160932 9.56646e-21)
(0.470323 -0.160246 4.12029e-21)
(0.512551 -0.154717 0)
(0.56402 -0.145704 -6.54695e-21)
(0.623288 -0.133642 4.48232e-21)
(0.688479 -0.119327 2.89441e-21)
(0.756828 -0.104252 -6.17417e-21)
(0.827533 -0.0879414 -1.22058e-20)
(0.897607 -0.0720941 -1.64192e-20)
(0.964772 -0.0569517 -1.33615e-20)
(1.02856 -0.0447485 0)
(1.0868 -0.0306152 0)
(1.14024 -0.0313086 0)
(0.451897 -0.125462 -3.36297e-20)
(0.497802 -0.117239 0)
(0.553172 -0.105032 9.4081e-21)
(0.617684 -0.0885092 -8.64507e-21)
(0.688283 -0.0696032 -1.3937e-20)
(0.760518 -0.0506054 1.44885e-20)
(0.832217 -0.0324153 -1.62063e-20)
(0.9027 -0.0151389 9.77068e-21)
(0.969766 0.000117143 -2.12045e-21)
(1.03192 0.0131749 1.91947e-20)
(1.08874 0.0234123 -9.36634e-21)
(1.13928 0.0319251 8.72887e-22)
(1.1841 0.0317014 0)
(0.493636 -0.0719248 1.7883e-20)
(0.556244 -0.0546614 -1.5706e-20)
(0.624414 -0.035464 0)
(0.696653 -0.0148869 -1.34886e-20)
(0.769775 0.00524602 0)
(0.840779 0.0236499 -1.1787e-20)
(0.908626 0.0400413 1.09832e-20)
(0.97281 0.0543323 1.06083e-20)
(1.03208 0.0660534 -5.62527e-22)
(1.08558 0.0751235 -8.49965e-21)
(1.13301 0.081349 7.61382e-21)
(1.17418 0.0848535 4.19924e-22)
(1.2093 0.0836292 -4.15383e-22)
(0.563624 -0.00583734 2.23964e-20)
(0.633292 0.0143252 0)
(0.704329 0.0341257 0)
(0.775385 0.0530833 5.79322e-21)
(0.844293 0.0702206 -9.63945e-23)
(0.909337 0.0850518 1.45668e-20)
(0.969878 0.0975217 -2.45135e-21)
(1.02549 0.107604 -7.22617e-21)
(1.07547 0.115143 9.06743e-21)
(1.11942 0.120122 -7.90595e-21)
(1.15733 0.122459 9.35983e-22)
(1.18946 0.122436 -9.28943e-22)
(1.21602 0.119903 0)
(0.636416 0.0521483 -9.14964e-21)
(0.705631 0.0705612 0)
(0.773691 0.0874938 -4.15496e-21)
(0.839632 0.102688 -2.94652e-21)
(0.902005 0.11573 0)
(0.959674 0.126505 -1.88632e-21)
(1.01207 0.135015 6.75593e-21)
(1.05887 0.141287 0)
(1.09975 0.145295 8.26848e-21)
(1.13475 0.147051 5.79896e-21)
(1.16425 0.146597 -8.04416e-22)
(1.18881 0.144508 8.02415e-22)
(1.20888 0.141093 0)
(0.698867 0.0926937 -3.36492e-21)
(0.764429 0.107745 8.85068e-21)
(0.827338 0.121037 -2.27861e-21)
(0.887006 0.132431 8.03679e-21)
(0.942444 0.141778 1.528e-21)
(0.992746 0.149091 -1.09895e-21)
(1.03734 0.154408 -1.37087e-20)
(1.076 0.157789 0)
(1.10879 0.15929 -4.96902e-21)
(1.13617 0.15894 -1.34376e-21)
(1.15887 0.156884 0)
(1.17769 0.153859 0)
(1.19329 0.150161 0)
(0.747774 0.116117 4.73666e-21)
(0.808873 0.127733 -1.08451e-21)
(0.866301 0.137713 -3.65779e-21)
(0.919771 0.14596 -2.67809e-21)
(0.968632 0.152412 -2.60148e-21)
(1.01214 0.157113 -3.77446e-21)
(1.04975 0.160125 4.41087e-21)
(1.08137 0.161552 -1.71823e-21)
(1.10741 0.161492 -8.78552e-22)
(1.1287 0.160001 0)
(1.14625 0.15727 0)
(1.16103 0.154059 -2.92646e-21)
(1.17374 0.150536 0)
(0.783975 0.126435 -3.29004e-22)
(0.840893 0.135028 3.1711e-22)
(0.893354 0.142274 -2.32139e-22)
(0.941252 0.148082 2.26755e-22)
(0.984208 0.1524 0)
(1.0217 0.155252 2.46969e-21)
(1.05332 0.156728 3.23698e-23)
(1.07914 0.156949 2.60792e-21)
(1.09982 0.156046 0)
(1.11649 0.154094 8.25743e-22)
(1.13036 0.151284 5.20271e-22)
(1.14242 0.148299 1.31381e-21)
(1.15332 0.145207 0)
(0.80934 0.128019 0)
(0.86278 0.134083 0)
(0.911171 0.139126 -6.48996e-22)
(0.954393 0.143062 6.3716e-22)
(0.992305 0.145829 0)
(1.02466 0.147422 4.30616e-22)
(1.05132 0.147931 -1.40382e-21)
(1.07254 0.147479 0)
(1.08916 0.146208 0)
(1.10247 0.144204 -1.40506e-21)
(1.11378 0.14163 -4.03595e-22)
(1.12407 0.139052 2.28096e-21)
(1.13386 0.136477 -7.17919e-22)
(0.77088 0.11954 -9.12213e-22)
(0.825793 0.124362 3.51363e-21)
(0.876461 0.128365 -3.42689e-21)
(0.921776 0.131631 0)
(0.961379 0.13411 0)
(0.99524 0.135738 9.19269e-22)
(1.02342 0.136486 -9.14353e-22)
(1.04611 0.136409 7.08334e-22)
(1.06379 0.135627 0)
(1.07743 0.134268 -1.59668e-22)
(1.08839 0.132417 6.67479e-22)
(1.09799 0.130205 2.73945e-22)
(1.10714 0.128069 -4.90214e-22)
(1.11623 0.125982 7.30001e-22)
(1.17258 0.0370152 -3.03967e-22)
(1.16172 0.0435971 1.75773e-20)
(1.03123 0.042572 -9.92742e-21)
(0.721871 0.0566582 9.64273e-23)
(0.651179 0.0802552 6.56519e-22)
(0.655707 0.0935324 1.2297e-20)
(0.686889 0.103929 6.17573e-21)
(0.732312 0.110308 1.04998e-20)
(0.783594 0.11474 -5.21702e-21)
(0.835149 0.117879 -4.347e-21)
(0.88348 0.12026 -3.91409e-21)
(0.926607 0.122096 3.83344e-21)
(0.96367 0.12342 0)
(0.994565 0.124186 -1.36587e-21)
(1.01957 0.124353 1.36204e-21)
(1.03921 0.123934 -2.50698e-21)
(1.05426 0.123017 0)
(1.0658 0.121711 3.82792e-22)
(1.07518 0.120089 -5.4025e-22)
(1.08366 0.118246 -3.19937e-22)
(1.09208 0.116508 -1.14546e-21)
(1.1007 0.114831 -4.80172e-23)
(1.18466 0.0349588 0)
(1.17698 0.0407663 1.71644e-20)
(1.06849 0.0406065 -9.47809e-21)
(0.798031 0.0541343 -9.00491e-23)
(0.712888 0.0760145 -3.28103e-24)
(0.697495 0.0889095 1.2949e-20)
(0.712994 0.0987971 -6.01604e-21)
(0.747409 0.104562 0)
(0.791696 0.10805 0)
(0.839171 0.110053 -4.9392e-21)
(0.885177 0.111237 8.66435e-21)
(0.926708 0.111957 -2.0903e-21)
(0.962201 0.112358 -7.89637e-23)
(0.991212 0.11245 -1.80225e-21)
(1.01406 0.112191 0)
(1.03155 0.111568 1.20758e-21)
(1.04472 0.11062 1.35144e-21)
(1.05483 0.109424 0)
(1.06319 0.108032 0)
(1.07097 0.106515 -1.19399e-21)
(1.07892 0.1051 1.33743e-21)
(1.08721 0.103742 1.56998e-21)
(1.19515 0.0320308 -1.46979e-20)
(1.1904 0.0369687 -1.61344e-20)
(1.10314 0.0373084 -8.64269e-21)
(0.869902 0.0494104 -1.05455e-20)
(0.774295 0.069293 -2.44892e-22)
(0.740701 0.0818249 0)
(0.73997 0.0915229 -5.65924e-21)
(0.761805 0.0971884 -5.47811e-21)
(0.797454 0.100302 5.44158e-21)
(0.839681 0.101685 -4.74069e-21)
(0.882852 0.10209 4.78069e-21)
(0.922967 0.101998 -4.25407e-21)
(0.957594 0.101683 3.91982e-21)
(0.985698 0.101236 0)
(1.00739 0.100646 -3.43213e-21)
(1.02356 0.099884 0)
(1.03554 0.0989494 -6.96806e-22)
(1.04472 0.0978748 7.00245e-22)
(1.05245 0.0966875 -5.80237e-22)
(1.05982 0.0954331 1.84906e-21)
(1.06747 0.0942655 -2.61016e-22)
(1.07551 0.0931435 -1.51143e-21)
(1.20392 0.0285555 7.16589e-21)
(1.20171 0.0326007 1.99514e-22)
(1.13395 0.0331933 1.65217e-20)
(0.93577 0.0434523 0)
(0.834458 0.0611297 9.82305e-21)
(0.785806 0.073209 -1.01624e-20)
(0.769392 0.0828755 1.079e-20)
(0.777621 0.0887676 -5.33168e-21)
(0.803059 0.0919468 4.92003e-21)
(0.83854 0.0931617 -9.26906e-21)
(0.877893 0.0931799 2.77202e-22)
(0.916289 0.0925785 6.18265e-21)
(0.950371 0.091748 -2.057e-21)
(0.978309 0.0908769 -3.64467e-21)
(0.99973 0.0900141 1.8081e-21)
(1.01542 0.0891412 3.30526e-21)
(1.02681 0.0882276 7.72351e-22)
(1.03547 0.0872619 1.42381e-21)
(1.04285 0.0862441 -2.00119e-21)
(1.04998 0.0851953 2.90294e-22)
(1.05744 0.0842119 -4.21801e-22)
(1.06531 0.0832595 1.14559e-21)
(1.21097 0.0247995 6.28749e-21)
(1.21088 0.0279967 -6.63967e-21)
(1.16017 0.0286281 -4.07411e-22)
(0.994484 0.036967 8.18761e-21)
(0.892631 0.0523723 -9.48654e-21)
(0.832649 0.063845 9.86745e-21)
(0.801996 0.0734435 0)
(0.796422 0.0796933 4.63324e-21)
(0.810393 0.0832341 -9.20627e-21)
(0.837577 0.0846393 4.82624e-21)
(0.8718 0.084623 4.61354e-21)
(0.907695 0.0838041 3.79196e-21)
(0.941088 0.082659 -3.65201e-21)
(0.969255 0.0814781 7.17812e-21)
(0.99112 0.0803897 3.27997e-21)
(1.00707 0.0794118 -3.20007e-21)
(1.01846 0.0785054 2.75295e-23)
(1.02699 0.0776258 1.38584e-21)
(1.03422 0.0767429 2.6449e-21)
(1.04123 0.075854 0)
(1.04858 0.0750089 -1.3805e-22)
(1.05631 0.0741777 -8.97198e-22)
(1.21637 0.0209794 0)
(1.21798 0.0234151 5.90348e-21)
(1.18116 0.02396 -7.05594e-21)
(1.04632 0.0304693 7.04839e-21)
(0.947744 0.0436054 -1.53832e-20)
(0.880295 0.0542677 8.17155e-21)
(0.837862 0.0636506 0)
(0.81913 0.0702621 -7.98557e-21)
(0.82096 0.0743161 1.20596e-20)
(0.838504 0.0761684 -4.075e-21)
(0.866122 0.0764117 -3.63975e-21)
(0.898347 0.0756426 -2.22399e-21)
(0.930421 0.0743862 8.88034e-21)
(0.958789 0.0730184 -3.53289e-21)
(0.981527 0.0717543 -1.8626e-21)
(0.99837 0.0706722 1.56642e-21)
(1.01034 0.069749 -7.02268e-22)
(1.01912 0.0689253 -7.08692e-22)
(1.0264 0.0681459 -1.33013e-21)
(1.03337 0.0673805 1.17005e-21)
(1.04064 0.0666429 -1.09533e-21)
(1.04828 0.0659022 0)
(1.21558 0.0164094 0)
(1.22027 0.0172543 -9.50901e-21)
(1.22319 0.0190346 5.14815e-21)
(1.19737 0.0194534 -6.16206e-21)
(1.09044 0.02432 1.20598e-20)
(0.998538 0.0352219 -4.47163e-22)
(0.927785 0.0448847 0)
(0.876502 0.0538829 1.78571e-22)
(0.84605 0.0607376 3.74897e-21)
(0.835826 0.0653237 -4.14491e-21)
(0.842778 0.0677693 -6.76489e-21)
(0.862371 0.0684867 3.97045e-21)
(0.889499 0.0679985 -5.18635e-21)
(0.919206 0.0668259 -3.34329e-21)
(0.947289 0.0654046 4.45245e-21)
(0.970966 0.064029 -3.11123e-21)
(0.989124 0.0628499 1.32207e-21)
(1.0022 0.0618864 0)
(1.01165 0.0610867 -6.2005e-22)
(1.01921 0.0603792 1.21054e-21)
(1.02623 0.0597091 -2.87042e-21)
(1.03346 0.0590583 9.3435e-23)
(1.04102 0.0583888 0)
(1.21766 0.0131764 -4.05351e-21)
(1.22283 0.0137331 4.81663e-21)
(1.22672 0.014968 2.69341e-22)
(1.20941 0.015241 -1.44059e-20)
(1.12677 0.0187347 5.1114e-21)
(1.04452 0.0274922 -6.01168e-21)
(0.973942 0.0360396 0)
(0.916918 0.0444525 3.2673e-21)
(0.876944 0.0513514 0)
(0.855457 0.0563881 -3.33815e-21)
(0.851481 0.0594541 3.14966e-21)
(0.861899 0.0607743 6.47304e-21)
(0.882465 0.0607439 -2.98859e-21)
(0.908444 0.0598368 0)
(0.935326 0.0585029 -2.9445e-21)
(0.959588 0.0570985 0)
(0.979197 0.0558474 -1.3512e-21)
(0.993786 0.0548288 0)
(1.00434 0.0540223 -5.64244e-22)
(1.01246 0.0533545 1.33438e-21)
(1.01967 0.0527546 1.37878e-21)
(1.02689 0.0521755 -8.07521e-24)
(1.03438 0.0515684 9.96542e-22)
(1.21876 0.0101696 6.57009e-21)
(1.22423 0.0104862 7.39093e-21)
(1.22879 0.0112818 3.09617e-22)
(1.21793 0.0114076 4.01914e-21)
(1.1556 0.013809 -3.98676e-21)
(1.08486 0.0205868 4.60886e-21)
(1.01737 0.0279534 -5.03922e-21)
(0.957955 0.0355966 1.38229e-22)
(0.910958 0.0423458 -5.21246e-21)
(0.879754 0.0476655 2.67406e-21)
(0.865174 0.05129 -4.21718e-22)
(0.865767 0.0532467 2.82662e-21)
(0.878485 0.0537859 0)
(0.89926 0.0532899 0)
(0.923674 0.0521821 -2.23843e-21)
(0.947743 0.0508456 0)
(0.968579 0.0495685 0)
(0.984879 0.048496 -1.52824e-21)
(0.996916 0.0476571 6.99599e-23)
(1.00597 0.0469991 -1.80484e-21)
(1.01356 0.046444 1.19219e-23)
(1.02084 0.0459234 2.01373e-21)
(1.02828 0.0453723 -8.94836e-22)
(1.21902 0.00742571 -1.25484e-20)
(1.22463 0.00754503 -6.33824e-21)
(1.22964 0.00799326 0)
(1.22354 0.00797854 -3.16535e-21)
(1.17765 0.00954081 7.23674e-21)
(1.11909 0.0145946 -3.58476e-21)
(1.05746 0.0207085 3.83765e-21)
(0.998332 0.0274952 2.35017e-21)
(0.947081 0.0338898 4.20309e-21)
(0.908148 0.0393104 -2.02816e-22)
(0.883929 0.0433657 -6.70099e-21)
(0.874633 0.0459194 2.04429e-22)
(0.87859 0.0470732 0)
(0.892771 0.0470889 -1.05664e-21)
(0.91326 0.0463274 3.35148e-21)
(0.935989 0.0451642 9.9605e-22)
(0.957431 0.0439247 -1.00077e-21)
(0.975348 0.0428189 1.02503e-21)
(0.989131 0.0419334 1.82499e-21)
(0.999476 0.0412574 0)
(1.00774 0.0407207 -7.70708e-22)
(1.01522 0.0402435 -1.5831e-21)
(1.02264 0.0397401 -3.1373e-40)
(1.21856 0.00496793 -5.16476e-21)
(1.22419 0.00493092 2.41073e-22)
(1.22945 0.00511282 2.79496e-21)
(1.2268 0.00497639 3.12846e-21)
(1.19388 0.00591372 -6.26731e-21)
(1.14694 0.00954185 9.85328e-21)
(1.09311 0.0143985 -7.16823e-21)
(1.03689 0.0202298 1.77083e-21)
(0.984108 0.0261035 -2.09639e-21)
(0.939742 0.0314336 -3.97037e-21)
(0.907432 0.0357543 3.17433e-22)
(0.888756 0.0388136 2.10734e-22)
(0.883548 0.0405669 2.82729e-21)
(0.890003 0.0411505 -1.84597e-21)
(0.905097 0.0408311 -1.63578e-21)
(0.925077 0.039945 8.95176e-22)
(0.946124 0.0388232 7.86419e-22)
(0.965206 0.0377252 4.02172e-22)
(0.980772 0.0367976 -8.77767e-22)
(0.992722 0.0360829 -3.87078e-22)
(1.002 0.0355372 1.17409e-22)
(1.0099 0.0350848 1.10682e-22)
(1.0174 0.0346192 -2.74801e-40)
(1.21751 0.0027983 -3.34535e-22)
(1.22307 0.00264046 2.25762e-21)
(1.22843 0.00262252 -4.6986e-21)
(1.22821 0.00238592 4.85842e-21)
(1.20528 0.00286803 -7.39975e-21)
(1.16875 0.00536997 2.6819e-21)
(1.12353 0.00906741 0)
(1.07253 0.0138682 -1.46072e-21)
(1.02063 0.0191026 1.50907e-21)
(0.973409 0.0241473 6.38723e-23)
(0.934919 0.0285556 4.85805e-21)
(0.908025 0.0319782 0)
(0.893793 0.0342641 0)
(0.891826 0.0354198 0)
(0.900212 0.035606 2.45753e-21)
(0.91593 0.0350868 -7.6913e-22)
(0.935259 0.0341705 -1.16414e-21)
(0.954678 0.0331407 1.40218e-23)
(0.971754 0.0321955 3.48442e-22)
(0.985465 0.0314356 6.04344e-22)
(0.996099 0.0308581 1.41539e-21)
(1.00473 0.030409 1.1215e-21)
(1.01247 0.0299656 -7.2332e-23)
(1.21596 0.000908014 -3.56346e-22)
(1.22139 0.000659121 -3.83939e-21)
(1.22673 0.000495315 -1.82347e-21)
(1.22818 0.000179898 1.88321e-21)
(1.21279 0.000337338 2.3141e-21)
(1.18515 0.00197885 0)
(1.14837 0.00467987 2.26816e-21)
(1.10415 0.00845592 -1.34575e-21)
(1.05557 0.0129249 -1.45653e-22)
(1.0077 0.017564 -1.43946e-21)
(0.965383 0.0218638 -1.42042e-21)
(0.931838 0.0254938 1.37936e-21)
(0.909394 0.0281952 0)
(0.898819 0.0298803 0)
(0.899544 0.0305921 6.46794e-22)
(0.909542 0.030508 -6.34795e-23)
(0.925649 0.0298808 0)
(0.944217 0.0289929 2.98399e-22)
(0.962165 0.0280728 5.27794e-22)
(0.977542 0.0272784 -1.42398e-21)
(0.989783 0.0266555 -9.54585e-23)
(0.999478 0.0261889 -9.06379e-23)
(1.00771 0.0257481 -2.04917e-40)
(1.21402 -0.000717279 2.83052e-21)
(1.21927 -0.00103214 0)
(1.22449 -0.00129936 1.81085e-21)
(1.22705 -0.00167288 -3.02686e-22)
(1.21724 -0.00174122 0)
(1.19692 -0.000738898 1.80759e-21)
(1.16786 0.00114973 -1.73564e-22)
(1.13087 0.00399599 -2.05804e-21)
(1.08764 0.00762194 1.05999e-21)
(1.04157 0.0117051 -1.20336e-21)
(0.997462 0.0157736 -1.04959e-21)
(0.959346 0.0194287 -2.16522e-21)
(0.929936 0.0224136 1.13468e-22)
(0.911227 0.0245388 -1.03781e-21)
(0.903799 0.0257563 0)
(0.906901 0.0261423 -5.6905e-22)
(0.918242 0.0258757 -5.44934e-22)
(0.934518 0.0252076 0)
(0.952322 0.0243728 -1.01236e-21)
(0.968932 0.0235746 5.30252e-22)
(0.98284 0.0229051 -6.19111e-22)
(0.993907 0.0224056 -3.69992e-22)
(1.00293 0.0219444 0)
(1.21177 -0.00209549 -2.81372e-21)
(1.21679 -0.00245558 -1.21135e-21)
(1.22185 -0.00279255 0)
(1.22508 -0.00320557 -1.55613e-21)
(1.21934 -0.00342596 0)
(1.20488 -0.00288617 1.4947e-21)
(1.18252 -0.00163554 -3.30642e-21)
(1.15248 0.000423607 7.96823e-22)
(1.1155 0.0032332 -8.59424e-22)
(1.07357 0.00663201 -8.13381e-22)
(1.03006 0.0103097 1.8776e-21)
(0.989293 0.0138645 1.05169e-21)
(0.954749 0.0169684 1.71153e-22)
(0.92885 0.0194258 2.38366e-21)
(0.913413 0.0210855 -4.79199e-22)
(0.908836 0.0219438 9.34996e-22)
(0.914059 0.0220844 -6.3705e-22)
(0.926469 0.0217093 4.40362e-22)
(0.942799 0.0210301 2.53457e-22)
(0.959826 0.0202773 -1.00079e-22)
(0.975158 0.0195773 1.95396e-22)
(0.987772 0.0190406 -9.50832e-23)
(0.997903 0.018538 -3.22114e-22)
(1.20927 -0.003246 4.19315e-21)
(1.21404 -0.00363456 -9.80221e-22)
(1.21889 -0.0040154 2.14304e-21)
(1.22251 -0.004452 -1.16856e-21)
(1.21966 -0.00476995 -1.09652e-21)
(1.20977 -0.00455639 1.22979e-21)
(1.19302 -0.00378994 -1.29762e-21)
(1.16926 -0.00236733 6.52414e-22)
(1.13861 -0.000279903 -6.97671e-22)
(1.10205 0.0024128 8.61816e-23)
(1.06167 0.0055407 -5.64443e-23)
(1.02059 0.00883085 7.60521e-22)
(0.982707 0.0119296 -1.06639e-21)
(0.951209 0.0145753 -1.28014e-22)
(0.928401 0.0165923 1.66881e-23)
(0.915974 0.0178848 -3.31076e-23)
(0.914033 0.0184522 4.21929e-22)
(0.921102 0.0184288 1.57777e-22)
(0.934414 0.017976 3.59507e-22)
(0.950665 0.0173333 -1.76491e-22)
(0.966814 0.0166364 3.02032e-22)
(0.980892 0.0160733 -3.83309e-23)
(0.992373 0.0155144 3.6729e-22)
(1.20659 -0.00418926 0)
(1.21109 -0.00459255 7.68982e-23)
(1.2157 -0.00499759 -1.94209e-21)
(1.21949 -0.00544449 8.61068e-22)
(1.21866 -0.00582081 1.09023e-21)
(1.21225 -0.00583055 0)
(1.20007 -0.00542102 -5.17932e-22)
(1.18173 -0.0044943 5.30838e-23)
(1.15699 -0.00300865 0)
(1.12617 -0.000965639 0)
(1.09039 0.00155756 5.80791e-22)
(1.05162 0.0044079 -6.31932e-22)
(1.01274 0.00733324 7.11278e-22)
(0.977323 0.0100463 -1.05596e-21)
(0.9485 0.0122968 6.61293e-22)
(0.928551 0.0139617 -1.41045e-23)
(0.918978 0.0149393 -4.82929e-22)
(0.919458 0.0153028 -3.39504e-22)
(0.928173 0.0151399 1.54236e-22)
(0.942177 0.014678 -7.1151e-23)
(0.958116 0.0140347 -2.3783e-22)
(0.973246 0.013474 2.73232e-22)
(0.986127 0.012857 1.95821e-22)
(1.20377 -0.00494545 -1.36846e-21)
(1.20801 -0.00535285 1.52333e-21)
(1.21236 -0.00576727 1.47924e-21)
(1.21618 -0.00621378 -1.62715e-21)
(1.21671 -0.00662046 7.18692e-22)
(1.2129 -0.00677749 0)
(1.20433 -0.00662313 0)
(1.19051 -0.00607047 4.87896e-22)
(1.171 -0.00506534 0)
(1.14571 -0.00357893 0)
(1.11511 -0.0016322 0)
(1.08029 0.000702903 2.40855e-22)
(1.04309 0.00327563 2.08159e-22)
(1.00615 0.00588103 -2.44664e-22)
(0.972884 0.00824901 2.67096e-22)
(0.946529 0.0101829 -5.30156e-22)
(0.929335 0.0115282 -1.30924e-22)
(0.922485 0.0122844 1.33494e-22)
(0.925198 0.0124552 0)
(0.935309 0.0122451 -2.23035e-22)
(0.949682 0.0117169 0)
(0.965042 0.0112045 -2.19351e-22)
(0.979054 0.0105439 -2.59626e-22)
(1.20086 -0.00553501 0)
(1.20483 -0.00593824 5.11227e-22)
(1.20891 -0.00635099 5.31573e-22)
(1.21266 -0.00678886 0)
(1.21408 -0.00720615 -7.15895e-22)
(1.21217 -0.0074556 0)
(1.20641 -0.00747793 3.09802e-22)
(1.19625 -0.00719907 -3.2101e-22)
(1.18118 -0.00656381 -3.31842e-22)
(1.1609 -0.00553107 0)
(1.13546 -0.00409078 0)
(1.10533 -0.00226431 1.93678e-22)
(1.07152 -0.000130433 -8.55867e-22)
(1.03575 0.00219126 4.46502e-22)
(1.00055 0.0044973 -2.00483e-22)
(0.969245 0.00658882 2.47689e-22)
(0.945309 0.00822084 2.0662e-22)
(0.930894 0.00934274 -2.0118e-22)
(0.926545 0.00986937 0)
(0.93124 0.00996506 2.77217e-22)
(0.942402 0.00961994 -5.00833e-23)
(0.956768 0.00921559 0)
(0.971267 0.00854489 -1.47778e-40)
(1.1979 -0.00597814 8.63204e-22)
(1.20161 -0.00637075 -1.0872e-22)
(1.20542 -0.00677407 -5.29919e-22)
(1.20902 -0.00719716 4.85127e-22)
(1.21099 -0.0076115 -9.61676e-22)
(1.21043 -0.00791442 0)
(1.2068 -0.0080543 -6.12679e-23)
(1.19955 -0.00797005 3.18657e-22)
(1.18815 -0.00761108 3.52751e-22)
(1.17221 -0.00693391 2.67969e-22)
(1.15152 -0.00591375 -2.92861e-22)
(1.12619 -0.00454425 -3.24009e-22)
(1.09665 -0.00285715 0)
(1.06381 -0.000910407 1.542e-22)
(1.02934 0.00116564 3.4848e-22)
(0.995756 0.00322905 1.64137e-22)
(0.966393 0.00504455 -1.12822e-22)
(0.945004 0.00647054 1.89988e-23)
(0.933167 0.00733694 4.7974e-23)
(0.931093 0.00777579 8.60852e-23)
(0.937449 0.00767397 -4.2165e-23)
(0.949253 0.00744212 -1.53607e-22)
(0.963139 0.00681523 9.44926e-24)
(1.19493 -0.00629514 0)
(1.19837 -0.00667302 -3.99779e-22)
(1.20191 -0.00706118 0)
(1.20533 -0.00746537 -3.40642e-22)
(1.20761 -0.00786752 4.534e-22)
(1.20798 -0.00819689 -4.16704e-22)
(1.20592 -0.00841074 -2.23384e-22)
(1.20093 -0.00846007 1.3959e-24)
(1.19249 -0.00830131 5.00079e-22)
(1.18018 -0.00789361 -2.91912e-22)
(1.16368 -0.00720768 5.62611e-23)
(1.14287 -0.00622304 2.51346e-23)