/*--------------------------------*- C++ -*----------------------------------*\
  =========                 |
  \\      /  F ield         | OpenFOAM: The Open Source CFD Toolbox
   \\    /   O peration     | Website:  https://openfoam.org
    \\  /    A nd           | Version:  9
     \\/     M anipulation  |
\*---------------------------------------------------------------------------*/
FoamFile
{
    format      ascii;
    class       volScalarField;
    location    "1500";
    object      gammaInt;
}
// * * * * * * * * * * * * * * * * * * * * * * * * * * * * * * * * * * * * * //

dimensions      [0 0 0 0 0 0 0];

internalField   nonuniform List<scalar> 
13446
(
0.999928
0.999935
0.999836
0.999942
0.999847
0.999784
0.999743
0.999712
0.999948
0.999861
0.999808
0.999764
0.999732
0.999714
0.999952
0.999873
0.999823
0.99978
0.999749
0.999732
0.999723
0.999956
0.999885
0.999829
0.999792
0.999766
0.999749
0.999741
0.999738
0.99974
0.999748
0.99976
0.999775
0.999794
0.999817
0.999846
0.999879
0.99991
0.999932
0.999938
0.999932
0.999915
0.99989
0.99986
0.999826
0.999789
0.999751
0.999713
0.999674
0.999637
0.999599
0.999564
0.99996
0.999894
0.999844
0.999808
0.999783
0.999766
0.999757
0.999753
0.999755
0.999762
0.999773
0.999787
0.999805
0.999827
0.999855
0.999886
0.999916
0.999935
0.999941
0.999934
0.999917
0.999893
0.999864
0.999831
0.999795
0.999758
0.999721
0.999683
0.999646
0.999609
0.999574
0.999541
0.999509
0.999157
0.99911
0.999044
0.998967
0.998878
0.998788
0.998685
0.998568
0.998445
0.998304
0.998166
0.998039
0.997874
0.997755
0.997566
0.997514
0.997081
0.997572
0.995832
0.996619
0.989021
0.985445
0.943436
0.895674
0.484185
0.0636896
0.999964
0.999903
0.999857
0.999823
0.999799
0.999782
0.999772
0.999768
0.99977
0.999777
0.999786
0.999799
0.999815
0.999836
0.999863
0.999893
0.99992
0.999938
0.999943
0.999936
0.99992
0.999897
0.999868
0.999836
0.999802
0.999766
0.999729
0.999693
0.999656
0.99962
0.999586
0.999552
0.99952
0.999491
0.999231
0.999197
0.999152
0.999097
0.999034
0.99896
0.998881
0.998793
0.998693
0.998583
0.998463
0.99834
0.998221
0.998077
0.997983
0.997801
0.997748
0.997377
0.997798
0.99626
0.996978
0.990123
0.987396
0.948667
0.906548
0.501243
0.0666273
0.999967
0.999911
0.999869
0.999837
0.999814
0.999798
0.999788
0.999784
0.999785
0.99979
0.999799
0.99981
0.999826
0.999846
0.999871
0.9999
0.999925
0.999942
0.999946
0.999939
0.999923
0.9999
0.999873
0.999841
0.999808
0.999773
0.999738
0.999702
0.999666
0.999631
0.999597
0.999564
0.999532
0.999502
0.999474
0.999449
0.99925
0.999232
0.999208
0.999175
0.999132
0.999086
0.999028
0.998969
0.998896
0.998807
0.998715
0.998612
0.998508
0.9984
0.998273
0.998188
0.998028
0.997983
0.997659
0.998021
0.996664
0.997334
0.991157
0.989256
0.953821
0.917497
0.518415
0.0697222
0.99997
0.999919
0.99988
0.99985
0.999828
0.999812
0.999802
0.999799
0.999799
0.999804
0.999811
0.999822
0.999837
0.999856
0.99988
0.999907
0.99993
0.999945
0.999948
0.999941
0.999925
0.999903
0.999876
0.999846
0.999814
0.99978
0.999746
0.999711
0.999676
0.999642
0.999608
0.999576
0.999544
0.999514
0.999486
0.99946
0.999438
0.999237
0.999214
0.999202
0.999199
0.999201
0.999205
0.999208
0.99921
0.999207
0.999194
0.999177
0.999151
0.999119
0.999079
0.999032
0.998968
0.998899
0.99882
0.998738
0.998645
0.998565
0.998464
0.99838
0.998225
0.998197
0.997913
0.998228
0.997032
0.997684
0.992123
0.991092
0.958778
0.928026
0.53689
0.0733078
0.999973
0.999926
0.99989
0.999862
0.999841
0.999826
0.999817
0.999813
0.999813
0.999817
0.999823
0.999833
0.999848
0.999866
0.999889
0.999914
0.999936
0.999949
0.999951
0.999943
0.999927
0.999906
0.99988
0.999851
0.99982
0.999787
0.999754
0.99972
0.999686
0.999653
0.99962
0.999588
0.999557
0.999527
0.999499
0.999474
0.99945
0.99943
0.999413
0.999193
0.999169
0.999154
0.999144
0.99914
0.999141
0.999145
0.999152
0.99916
0.999166
0.999167
0.999163
0.999148
0.999127
0.9991
0.999074
0.999027
0.99898
0.998909
0.998846
0.998772
0.998706
0.998619
0.998559
0.998418
0.998418
0.998168
0.998419
0.997374
0.997993
0.993025
0.992806
0.963475
0.938997
0.555505
0.0773951
0.999976
0.999933
0.9999
0.999874
0.999854
0.99984
0.999831
0.999827
0.999827
0.99983
0.999836
0.999845
0.999859
0.999877
0.999898
0.999921
0.999941
0.999952
0.999953
0.999944
0.999929
0.999908
0.999883
0.999855
0.999825
0.999794
0.999762
0.999729
0.999696
0.999664
0.999631
0.9996
0.999569
0.99954
0.999513
0.999487
0.999464
0.999443
0.999426
0.999411
0.9994
0.999278
0.999259
0.999235
0.999209
0.999184
0.999161
0.999139
0.99912
0.999102
0.999089
0.999081
0.999075
0.999076
0.999081
0.99909
0.999101
0.99911
0.999116
0.999118
0.999118
0.99911
0.99909
0.999057
0.999022
0.998982
0.998939
0.998881
0.99883
0.998757
0.998708
0.998587
0.998588
0.998386
0.998602
0.997687
0.99831
0.993854
0.994386
0.967968
0.949091
0.574901
0.0820764
0.999978
0.99994
0.999909
0.999885
0.999866
0.999853
0.999845
0.999841
0.99984
0.999843
0.999848
0.999857
0.99987
0.999887
0.999907
0.999929
0.999946
0.999955
0.999955
0.999946
0.99993
0.99991
0.999886
0.999859
0.99983
0.9998
0.999769
0.999738
0.999706
0.999674
0.999643
0.999612
0.999582
0.999553
0.999526
0.999501
0.999478
0.999457
0.999439
0.999424
0.999412
0.999403
0.999397
0.999394
0.999396
0.999252
0.999228
0.999201
0.999173
0.999148
0.999123
0.999099
0.999075
0.999053
0.999035
0.99902
0.99901
0.999005
0.999006
0.999013
0.999022
0.999036
0.99905
0.999061
0.999071
0.999077
0.999077
0.99907
0.999052
0.999024
0.998995
0.998966
0.998937
0.998887
0.998829
0.998747
0.998765
0.998587
0.998778
0.997968
0.99859
0.994585
0.995914
0.972116
0.958953
0.594956
0.0871435
0.99998
0.999946
0.999918
0.999895
0.999878
0.999866
0.999858
0.999854
0.999854
0.999856
0.999861
0.999869
0.999881
0.999898
0.999917
0.999936
0.999951
0.999958
0.999956
0.999947
0.999932
0.999912
0.999888
0.999863
0.999835
0.999806
0.999777
0.999746
0.999715
0.999685
0.999654
0.999624
0.999594
0.999566
0.99954
0.999515
0.999492
0.999472
0.999454
0.999438
0.999426
0.999416
0.999409
0.999406
0.999408
0.999413
0.999417
0.999225
0.999197
0.999168
0.99914
0.999112
0.999084
0.999057
0.999031
0.999006
0.998985
0.998965
0.998951
0.998941
0.998934
0.998934
0.99894
0.99895
0.998966
0.998985
0.999004
0.999023
0.999035
0.999042
0.999044
0.999043
0.999037
0.999022
0.999003
0.99897
0.998944
0.998891
0.99892
0.998766
0.998918
0.998226
0.998856
0.995251
0.997248
0.975664
0.96861
0.614311
0.0924837
0.999982
0.999951
0.999925
0.999905
0.99989
0.999879
0.999871
0.999868
0.999867
0.999869
0.999873
0.999881
0.999893
0.999908
0.999926
0.999943
0.999956
0.999961
0.999958
0.999948
0.999933
0.999913
0.999891
0.999866
0.99984
0.999812
0.999784
0.999754
0.999724
0.999694
0.999665
0.999635
0.999607
0.999579
0.999553
0.999529
0.999506
0.999486
0.999468
0.999453
0.99944
0.999429
0.999422
0.999419
0.99942
0.999423
0.999424
0.999421
0.999412
0.999398
0.999381
0.99936
0.999337
0.999313
0.999287
0.999259
0.999231
0.999201
0.99917
0.99914
0.999109
0.999078
0.999046
0.999016
0.998986
0.998958
0.998934
0.998911
0.998891
0.998874
0.998865
0.998859
0.998858
0.998863
0.998874
0.998891
0.998916
0.998944
0.99897
0.998995
0.999011
0.999023
0.999041
0.999047
0.999053
0.999031
0.999021
0.999001
0.999022
0.998928
0.999047
0.998464
0.999061
0.995802
0.998296
0.978685
0.976392
0.634259
0.0985601
0.999984
0.999956
0.999933
0.999915
0.999901
0.999891
0.999884
0.99988
0.999879
0.999881
0.999885
0.999893
0.999904
0.999919
0.999935
0.99995
0.999961
0.999964
0.999959
0.999949
0.999933
0.999915
0.999893
0.99987
0.999844
0.999818
0.99979
0.999762
0.999733
0.999704
0.999675
0.999647
0.999619
0.999592
0.999567
0.999543
0.999521
0.999501
0.999483
0.999467
0.999454
0.999443
0.999436
0.999433
0.999433
0.999434
0.999432
0.999425
0.999413
0.999396
0.999377
0.999354
0.999329
0.999302
0.999274
0.999244
0.999212
0.99918
0.999147
0.999114
0.999079
0.999045
0.999011
0.998977
0.998944
0.998914
0.998887
0.998861
0.998839
0.998821
0.998806
0.998793
0.998783
0.998778
0.998785
0.9988
0.998823
0.99885
0.998883
0.998918
0.998949
0.998975
0.999003
0.999039
0.999067
0.99908
0.999084
0.999097
0.999133
0.999069
0.999173
0.99866
0.999211
0.996227
0.999103
0.980739
0.983476
0.652516
0.10487
0.999986
0.999961
0.999941
0.999924
0.999912
0.999903
0.999896
0.999893
0.999892
0.999893
0.999898
0.999905
0.999916
0.999929
0.999944
0.999957
0.999965
0.999966
0.99996
0.999949
0.999934
0.999916
0.999895
0.999873
0.999848
0.999823
0.999796
0.999769
0.999741
0.999713
0.999685
0.999658
0.999631
0.999605
0.99958
0.999557
0.999535
0.999516
0.999498
0.999482
0.999469
0.999458
0.999451
0.999447
0.999446
0.999444
0.999439
0.99943
0.999415
0.999396
0.999374
0.999349
0.999322
0.999293
0.999261
0.999229
0.999195
0.999161
0.999125
0.999088
0.999051
0.999014
0.998977
0.998941
0.998907
0.998873
0.998842
0.998814
0.998789
0.998765
0.998743
0.998725
0.998711
0.998705
0.998706
0.998714
0.998732
0.998756
0.998784
0.998822
0.998863
0.998904
0.998955
0.999008
0.99905
0.999086
0.999119
0.999153
0.999187
0.999119
0.99922
0.998787
0.99931
0.996572
0.999395
0.981899
0.987793
0.67011
0.112276
0.999988
0.999966
0.999948
0.999933
0.999922
0.999914
0.999908
0.999905
0.999904
0.999906
0.99991
0.999917
0.999928
0.99994
0.999953
0.999963
0.999969
0.999968
0.999961
0.999949
0.999934
0.999917
0.999897
0.999875
0.999852
0.999827
0.999802
0.999775
0.999749
0.999722
0.999695
0.999668
0.999643
0.999618
0.999594
0.999571
0.99955
0.999531
0.999513
0.999497
0.999484
0.999473
0.999466
0.999462
0.999459
0.999455
0.999447
0.999434
0.999417
0.999396
0.999372
0.999345
0.999316
0.999284
0.999251
0.999217
0.999181
0.999143
0.999104
0.999065
0.999026
0.998986
0.998947
0.998908
0.99887
0.998835
0.998801
0.998769
0.998739
0.998713
0.998689
0.99867
0.998656
0.998647
0.998642
0.998644
0.99865
0.998669
0.998694
0.998728
0.998772
0.998826
0.998884
0.998948
0.99901
0.999054
0.999095
0.999144
0.999213
0.999198
0.999309
0.998884
0.9994
0.996815
0.999561
0.981627
0.989616
0.685326
0.120778
0.99999
0.999971
0.999955
0.999942
0.999932
0.999925
0.99992
0.999917
0.999917
0.999918
0.999922
0.99993
0.999939
0.99995
0.999961
0.999969
0.999972
0.999969
0.999961
0.999949
0.999935
0.999917
0.999898
0.999877
0.999855
0.999831
0.999806
0.999781
0.999756
0.99973
0.999704
0.999679
0.999654
0.99963
0.999607
0.999585
0.999565
0.999546
0.999528
0.999513
0.999499
0.999488
0.999481
0.999476
0.999471
0.999464
0.999454
0.999439
0.99942
0.999397
0.999371
0.999342
0.999311
0.999278
0.999243
0.999206
0.999167
0.999128
0.999087
0.999046
0.999004
0.998962
0.99892
0.99888
0.998841
0.998804
0.998768
0.998734
0.998702
0.998672
0.998645
0.998623
0.998605
0.998591
0.998585
0.998587
0.998593
0.998601
0.998618
0.998647
0.998685
0.998738
0.998807
0.998877
0.998941
0.998997
0.999061
0.999151
0.99922
0.999214
0.999302
0.998954
0.999496
0.996956
0.999842
0.980178
0.988135
0.697362
0.131409
0.999991
0.999975
0.999962
0.999951
0.999942
0.999936
0.999932
0.999929
0.999929
0.999931
0.999935
0.999942
0.999951
0.999961
0.999969
0.999974
0.999974
0.99997
0.999961
0.999949
0.999934
0.999917
0.999899
0.999878
0.999857
0.999834
0.999811
0.999787
0.999763
0.999738
0.999714
0.99969
0.999666
0.999643
0.999621
0.9996
0.999579
0.999561
0.999544
0.999528
0.999514
0.999504
0.999496
0.99949
0.999483
0.999474
0.999461
0.999444
0.999423
0.999398
0.999371
0.99934
0.999307
0.999273
0.999236
0.999197
0.999156
0.999115
0.999073
0.99903
0.998987
0.998943
0.998901
0.998859
0.998818
0.998778
0.99874
0.998703
0.998668
0.998636
0.998608
0.998585
0.998567
0.998557
0.998549
0.998542
0.99854
0.998549
0.998567
0.998591
0.998634
0.99869
0.998746
0.998804
0.998867
0.998938
0.999019
0.999106
0.999167
0.999186
0.999283
0.998988
0.999519
0.997126
0.999679
0.977819
0.982247
0.70692
0.145635
0.999993
0.999979
0.999968
0.999959
0.999952
0.999946
0.999943
0.999941
0.999941
0.999943
0.999948
0.999954
0.999962
0.99997
0.999976
0.999978
0.999976
0.99997
0.99996
0.999948
0.999933
0.999917
0.999899
0.999879
0.999859
0.999838
0.999815
0.999793
0.99977
0.999746
0.999723
0.9997
0.999678
0.999655
0.999634
0.999613
0.999594
0.999575
0.999558
0.999542
0.999529
0.999518
0.99951
0.999502
0.999493
0.999481
0.999467
0.999448
0.999426
0.9994
0.999371
0.999339
0.999305
0.999269
0.99923
0.99919
0.999149
0.999107
0.999063
0.999019
0.998975
0.998932
0.998889
0.998846
0.998803
0.998762
0.998722
0.998685
0.99865
0.99862
0.998594
0.998571
0.998553
0.998536
0.99852
0.998514
0.998518
0.998527
0.998544
0.998577
0.998619
0.998671
0.998707
0.99875
0.998802
0.998874
0.998969
0.999069
0.999101
0.999095
0.999229
0.999091
0.99953
0.997299
0.998813
0.975829
0.975338
0.717672
0.163845
0.999994
0.999983
0.999974
0.999967
0.999961
0.999957
0.999954
0.999953
0.999953
0.999956
0.99996
0.999966
0.999973
0.999979
0.999982
0.999981
0.999977
0.999969
0.999959
0.999946
0.999932
0.999916
0.999899
0.99988
0.999861
0.999841
0.99982
0.999798
0.999776
0.999754
0.999732
0.99971
0.999689
0.999667
0.999646
0.999626
0.999607
0.999589
0.999572
0.999556
0.999542
0.999531
0.999521
0.999512
0.999501
0.999487
0.999471
0.999451
0.999428
0.999401
0.999371
0.999339
0.999304
0.999267
0.999228
0.999188
0.999147
0.999105
0.999062
0.999018
0.998975
0.998931
0.998887
0.998844
0.998802
0.998762
0.998724
0.998688
0.998655
0.998625
0.998597
0.998571
0.998549
0.998531
0.998523
0.998523
0.998526
0.998541
0.998561
0.998592
0.998621
0.998643
0.99868
0.998739
0.998799
0.998868
0.998943
0.999007
0.999026
0.999057
0.999195
0.999072
0.999455
0.99751
0.998077
0.976784
0.96844
0.744805
0.185229
0.999996
0.999988
0.99998
0.999975
0.99997
0.999967
0.999965
0.999965
0.999966
0.999969
0.999973
0.999978
0.999982
0.999985
0.999985
0.999982
0.999976
0.999967
0.999956
0.999944
0.99993
0.999915
0.999898
0.999881
0.999862
0.999843
0.999824
0.999803
0.999783
0.999762
0.999741
0.999719
0.999698
0.999678
0.999657
0.999638
0.999618
0.9996
0.999583
0.999567
0.999553
0.999541
0.99953
0.999518
0.999505
0.999491
0.999473
0.999453
0.999429
0.999402
0.999372
0.99934
0.999305
0.999269
0.999231
0.999192
0.999152
0.999111
0.99907
0.999028
0.998985
0.998943
0.998901
0.998861
0.998822
0.998783
0.998747
0.998713
0.998682
0.998651
0.998625
0.998601
0.998581
0.998571
0.998565
0.998563
0.998572
0.998586
0.998605
0.998623
0.998643
0.998675
0.998713
0.998751
0.998804
0.998871
0.998954
0.999016
0.999038
0.99906
0.999164
0.9991
0.999294
0.997913
0.997675
0.981741
0.966136
0.807809
0.208453
0.999997
0.999991
0.999986
0.999982
0.999979
0.999977
0.999976
0.999977
0.999978
0.999981
0.999984
0.999987
0.999989
0.999989
0.999986
0.99998
0.999973
0.999963
0.999953
0.999941
0.999927
0.999913
0.999897
0.999881
0.999863
0.999845
0.999827
0.999807
0.999788
0.999768
0.999747
0.999727
0.999706
0.999686
0.999666
0.999646
0.999627
0.999608
0.999591
0.999574
0.99956
0.999546
0.999533
0.99952
0.999506
0.99949
0.999472
0.999452
0.999428
0.999402
0.999373
0.999342
0.99931
0.999276
0.99924
0.999203
0.999166
0.999128
0.999089
0.99905
0.999012
0.998973
0.998935
0.998897
0.998861
0.998825
0.998792
0.998759
0.99873
0.998705
0.998681
0.998664
0.998654
0.998645
0.998642
0.998645
0.998649
0.998656
0.998664
0.998675
0.9987
0.998727
0.998762
0.998822
0.998871
0.998909
0.998937
0.998961
0.999003
0.999035
0.999052
0.998995
0.999001
0.998128
0.997434
0.988855
0.969088
0.911268
0.23603
0.999999
0.999995
0.999992
0.99999
0.999988
0.999988
0.999987
0.999988
0.99999
0.999991
0.999993
0.999993
0.999991
0.999988
0.999982
0.999976
0.999968
0.999958
0.999948
0.999936
0.999923
0.99991
0.999895
0.99988
0.999863
0.999846
0.999828
0.99981
0.999791
0.999771
0.999752
0.999731
0.999711
0.999691
0.999671
0.999651
0.999631
0.999612
0.999593
0.999575
0.999559
0.999543
0.999528
0.999514
0.999499
0.999482
0.999464
0.999445
0.999423
0.999399
0.999373
0.999345
0.999316
0.999285
0.999254
0.999222
0.999189
0.999156
0.999122
0.999089
0.999054
0.99902
0.998986
0.998953
0.998922
0.998892
0.998864
0.998838
0.998814
0.998795
0.99878
0.998768
0.998758
0.998753
0.998748
0.998745
0.998746
0.998752
0.998766
0.998785
0.998802
0.998832
0.998859
0.99887
0.998885
0.998906
0.998938
0.998959
0.998956
0.998958
0.99887
0.998705
0.99868
0.998279
0.997215
0.994429
0.975472
1.00373
0.281919
1
0.999999
0.999997
0.999996
0.999996
0.999995
0.999995
0.999995
0.999996
0.999995
0.999993
0.999991
0.999987
0.999982
0.999975
0.999968
0.99996
0.999951
0.999941
0.99993
0.999919
0.999906
0.999892
0.999877
0.999861
0.999845
0.999828
0.99981
0.999791
0.999772
0.999752
0.999732
0.999711
0.99969
0.999669
0.999648
0.999628
0.999607
0.999586
0.999566
0.999547
0.999529
0.999512
0.999495
0.999478
0.999461
0.999443
0.999424
0.999405
0.999384
0.999363
0.99934
0.999317
0.999292
0.999267
0.999241
0.999215
0.999188
0.999161
0.999133
0.999105
0.999078
0.999051
0.999025
0.998999
0.998974
0.998952
0.998932
0.998914
0.998896
0.998881
0.998867
0.998853
0.998842
0.998838
0.998836
0.998835
0.998839
0.998837
0.998837
0.998844
0.998837
0.998835
0.998835
0.998821
0.998803
0.998779
0.998757
0.998694
0.998641
0.998581
0.998528
0.99841
0.99828
0.996741
0.996924
0.976951
1.03994
0.350297
0.999999
0.999997
0.999996
0.999996
0.999995
0.999994
0.999993
0.999992
0.99999
0.999987
0.999984
0.999981
0.999976
0.999971
0.999965
0.999959
0.999951
0.999943
0.999934
0.999923
0.999912
0.9999
0.999886
0.999872
0.999857
0.999841
0.999824
0.999806
0.999787
0.999768
0.999747
0.999726
0.999705
0.999683
0.99966
0.999637
0.999614
0.999591
0.999568
0.999545
0.999522
0.999499
0.999478
0.999457
0.999436
0.999416
0.999396
0.999377
0.999358
0.999339
0.999321
0.999303
0.999285
0.999267
0.999249
0.99923
0.999211
0.999191
0.99917
0.999148
0.999127
0.999104
0.999081
0.99906
0.999039
0.999018
0.998998
0.998977
0.998958
0.998941
0.998924
0.998908
0.998894
0.99888
0.998864
0.998845
0.998832
0.998812
0.998792
0.99877
0.998737
0.998711
0.998659
0.998601
0.998543
0.998472
0.998359
0.998253
0.998161
0.998073
0.997962
0.997918
0.997845
0.997878
0.996425
0.996276
0.978954
1.02678
0.455725
0.999997
0.999993
0.99999
0.999988
0.999985
0.999983
0.999981
0.999979
0.999977
0.999974
0.999971
0.999968
0.999964
0.999959
0.999954
0.999948
0.999941
0.999933
0.999924
0.999915
0.999904
0.999892
0.999879
0.999865
0.99985
0.999833
0.999816
0.999798
0.999778
0.999758
0.999736
0.999714
0.999691
0.999667
0.999642
0.999616
0.99959
0.999564
0.999536
0.999509
0.999482
0.999454
0.999426
0.999398
0.999371
0.999344
0.999317
0.999292
0.999267
0.999244
0.999221
0.9992
0.999179
0.999159
0.999139
0.999119
0.999099
0.999079
0.999058
0.999037
0.999016
0.998993
0.998971
0.998948
0.998925
0.998901
0.998876
0.998851
0.998824
0.998797
0.998769
0.998739
0.998704
0.998667
0.998627
0.99858
0.998535
0.99848
0.998415
0.998344
0.998264
0.99818
0.998071
0.997958
0.997845
0.997718
0.997565
0.99744
0.997373
0.997303
0.997297
0.997384
0.997485
0.997654
0.996808
0.995745
0.985439
1.01018
0.587147
0.999996
0.999989
0.999984
0.99998
0.999977
0.999974
0.999971
0.999968
0.999966
0.999963
0.99996
0.999957
0.999953
0.999948
0.999943
0.999937
0.999931
0.999923
0.999914
0.999905
0.999894
0.999882
0.999869
0.999855
0.999839
0.999822
0.999804
0.999785
0.999764
0.999742
0.999719
0.999694
0.999669
0.999642
0.999614
0.999585
0.999556
0.999525
0.999493
0.999461
0.999428
0.999394
0.99936
0.999325
0.99929
0.999254
0.999219
0.999183
0.999147
0.999111
0.999075
0.999039
0.999002
0.998966
0.99893
0.998894
0.998857
0.99882
0.998783
0.998746
0.998708
0.998669
0.998629
0.998588
0.998546
0.998502
0.998456
0.998408
0.998357
0.998303
0.998244
0.998182
0.998115
0.998044
0.997967
0.997884
0.997793
0.997696
0.997592
0.99748
0.997361
0.997234
0.997104
0.996973
0.996839
0.996718
0.996622
0.996563
0.996519
0.996576
0.996707
0.996787
0.996965
0.997246
0.996443
0.995835
0.989323
1.00339
0.600192
0.999995
0.999986
0.999979
0.999973
0.999968
0.999964
0.999961
0.999958
0.999955
0.999951
0.999948
0.999945
0.999941
0.999936
0.999931
0.999925
0.999918
0.999911
0.999902
0.999892
0.999881
0.999868
0.999855
0.999839
0.999823
0.999805
0.999785
0.999764
0.999741
0.999717
0.999692
0.999664
0.999636
0.999606
0.999574
0.999541
0.999507
0.999471
0.999434
0.999397
0.999358
0.999317
0.999276
0.999234
0.999192
0.999148
0.999103
0.999058
0.999012
0.998965
0.998918
0.99887
0.998821
0.998771
0.998721
0.99867
0.998618
0.998565
0.998511
0.998455
0.998398
0.998339
0.998278
0.998216
0.998151
0.998083
0.998012
0.997939
0.997861
0.997778
0.997692
0.997599
0.997503
0.997401
0.99729
0.997176
0.997052
0.996922
0.99679
0.99665
0.996504
0.996352
0.996217
0.996077
0.995956
0.995852
0.995795
0.995772
0.995809
0.995871
0.995999
0.996237
0.9965
0.997052
0.996922
0.996072
0.992541
0.994912
0.460489
0.999993
0.999983
0.999976
0.999968
0.999961
0.999956
0.999951
0.999947
0.999944
0.99994
0.999936
0.999932
0.999928
0.999923
0.999917
0.999911
0.999904
0.999895
0.999886
0.999875
0.999863
0.99985
0.999835
0.999819
0.999801
0.999781
0.99976
0.999737
0.999712
0.999685
0.999657
0.999627
0.999595
0.999561
0.999526
0.999489
0.99945
0.99941
0.999368
0.999325
0.99928
0.999234
0.999187
0.999138
0.999088
0.999037
0.998984
0.998931
0.998876
0.99882
0.998762
0.998704
0.998644
0.998583
0.998521
0.998457
0.998391
0.998324
0.998254
0.998183
0.99811
0.998034
0.997955
0.997873
0.997788
0.9977
0.997607
0.997509
0.997408
0.997303
0.997192
0.997075
0.996951
0.996821
0.996687
0.996541
0.996394
0.996239
0.996077
0.995919
0.995761
0.995615
0.995461
0.995322
0.995214
0.995125
0.995068
0.995043
0.995089
0.995259
0.995522
0.995853
0.996355
0.996854
0.996707
0.995732
0.994472
0.990861
0.381177
0.999992
0.999978
0.999968
0.999959
0.999952
0.999946
0.999941
0.999936
0.999932
0.999928
0.999924
0.99992
0.999915
0.999911
0.999905
0.999898
0.99989
0.999881
0.999871
0.999859
0.999846
0.999832
0.999816
0.999798
0.999778
0.999757
0.999734
0.999709
0.999682
0.999653
0.999623
0.99959
0.999555
0.999519
0.99948
0.99944
0.999398
0.999354
0.999308
0.99926
0.999211
0.99916
0.999107
0.999053
0.998998
0.99894
0.998882
0.998822
0.99876
0.998697
0.998632
0.998565
0.998497
0.998427
0.998355
0.998281
0.998205
0.998127
0.998047
0.997963
0.997877
0.997787
0.997695
0.997599
0.9975
0.997396
0.997288
0.997175
0.997056
0.99693
0.9968
0.996663
0.996523
0.996377
0.996223
0.996068
0.995903
0.995736
0.995564
0.995385
0.99521
0.995035
0.994876
0.994739
0.994617
0.994543
0.994501
0.99453
0.99463
0.994789
0.99509
0.995431
0.99594
0.996336
0.996561
0.995513
0.994692
0.989291
0.332472
0.99999
0.999974
0.999961
0.999951
0.999943
0.999936
0.99993
0.999925
0.99992
0.999915
0.999911
0.999906
0.999902
0.999897
0.999891
0.999885
0.999877
0.999868
0.999857
0.999845
0.999831
0.999815
0.999798
0.999779
0.999758
0.999735
0.99971
0.999683
0.999654
0.999624
0.999591
0.999556
0.999519
0.99948
0.999439
0.999396
0.999351
0.999304
0.999255
0.999205
0.999152
0.999098
0.999042
0.998984
0.998924
0.998863
0.998799
0.998734
0.998668
0.9986
0.99853
0.998458
0.998384
0.998308
0.998229
0.998148
0.998064
0.997978
0.99789
0.997798
0.997703
0.997605
0.997502
0.997396
0.997286
0.997172
0.997054
0.996931
0.996804
0.996669
0.996527
0.996378
0.996223
0.996059
0.995891
0.995717
0.995541
0.995365
0.995185
0.995006
0.994824
0.994647
0.994483
0.994331
0.994209
0.994108
0.99407
0.994124
0.994232
0.99443
0.994759
0.995217
0.995805
0.996557
0.996986
0.997046
0.993531
0.989286
0.29934
0.999989
0.99997
0.999955
0.999943
0.999934
0.999926
0.999919
0.999913
0.999908
0.999903
0.999898
0.999893
0.999887
0.999882
0.999876
0.999869
0.999861
0.999852
0.999841
0.999829
0.999815
0.999799
0.999781
0.999761
0.999739
0.999714
0.999688
0.99966
0.999629
0.999596
0.999562
0.999525
0.999486
0.999445
0.999402
0.999357
0.99931
0.999261
0.99921
0.999157
0.999102
0.999046
0.998987
0.998926
0.998864
0.9988
0.998734
0.998666
0.998596
0.998524
0.998451
0.998375
0.998297
0.998218
0.998135
0.998051
0.997964
0.997873
0.997778
0.99768
0.997579
0.997475
0.997366
0.997253
0.997136
0.997013
0.996885
0.996751
0.996613
0.996471
0.996324
0.99617
0.996008
0.99584
0.995665
0.995483
0.995294
0.995095
0.994906
0.994723
0.99455
0.994381
0.994227
0.994083
0.993965
0.993881
0.993849
0.993863
0.994004
0.994272
0.99453
0.994949
0.995542
0.996111
0.996403
0.997042
0.993703
0.989841
0.274721
0.999988
0.999966
0.999949
0.999936
0.999925
0.999916
0.999908
0.999902
0.999895
0.99989
0.999887
0.999883
0.999877
0.99987
0.999862
0.999854
0.999845
0.999835
0.999824
0.999811
0.999797
0.999781
0.999763
0.999742
0.999719
0.999694
0.999667
0.999637
0.999605
0.999571
0.999535
0.999496
0.999456
0.999413
0.999369
0.999322
0.999273
0.999222
0.99917
0.999115
0.999059
0.999
0.99894
0.998878
0.998814
0.998748
0.99868
0.99861
0.998539
0.998465
0.99839
0.998311
0.998231
0.998149
0.998064
0.997976
0.997886
0.997794
0.997698
0.997597
0.997492
0.997383
0.997271
0.997154
0.997033
0.996907
0.996776
0.996637
0.996492
0.99634
0.996182
0.996019
0.995852
0.99568
0.995501
0.995315
0.995127
0.994938
0.994739
0.994533
0.994336
0.994159
0.994006
0.993873
0.993788
0.99373
0.993716
0.993755
0.993837
0.994088
0.994543
0.994965
0.995569
0.996191
0.996644
0.996743
0.994313
0.989332
0.254757
0.999986
0.999962
0.999943
0.999928
0.999915
0.999905
0.999897
0.99989
0.999883
0.999877
0.999873
0.99987
0.999865
0.999858
0.99985
0.99984
0.99983
0.999818
0.999806
0.999792
0.999777
0.999761
0.999742
0.999721
0.999698
0.999673
0.999645
0.999615
0.999582
0.999546
0.999509
0.999469
0.999427
0.999383
0.999337
0.999289
0.999239
0.999187
0.999133
0.999077
0.999019
0.99896
0.998898
0.998835
0.99877
0.998703
0.998635
0.998564
0.998491
0.998416
0.99834
0.998261
0.99818
0.998096
0.99801
0.997921
0.997829
0.997734
0.997636
0.997534
0.997429
0.997319
0.997204
0.997085
0.99696
0.99683
0.996695
0.996555
0.996408
0.996254
0.996094
0.995926
0.995752
0.995573
0.995391
0.995204
0.995009
0.994813
0.994622
0.994433
0.994244
0.994057
0.993885
0.993751
0.993633
0.993578
0.993599
0.993667
0.993806
0.99396
0.99425
0.994822
0.995531
0.996113
0.996606
0.996454
0.995451
0.987207
0.237711
0.999985
0.999957
0.999936
0.999919
0.999905
0.999894
0.999885
0.999878
0.999871
0.999864
0.999858
0.999853
0.999849
0.999843
0.999836
0.999827
0.999816
0.999803
0.999789
0.999774
0.999757
0.999739
0.99972
0.999699
0.999675
0.99965
0.999621
0.999591
0.999557
0.999521
0.999483
0.999442
0.999399
0.999354
0.999307
0.999257
0.999206
0.999153
0.999098
0.999041
0.998983
0.998923
0.998861
0.998797
0.998731
0.998664
0.998594
0.998523
0.99845
0.998375
0.998298
0.998219
0.998138
0.998054
0.997967
0.997878
0.997785
0.997689
0.99759
0.997487
0.997381
0.997271
0.997156
0.997036
0.996911
0.99678
0.996644
0.9965
0.996351
0.996194
0.99603
0.995859
0.995682
0.995498
0.995308
0.995118
0.994925
0.994725
0.994524
0.994327
0.994138
0.993953
0.993784
0.993649
0.993557
0.993498
0.993496
0.993592
0.993824
0.994084
0.994417
0.994791
0.995503
0.996295
0.996446
0.996186
0.995666
0.984632
0.223602
0.999982
0.999954
0.999933
0.999913
0.999897
0.999884
0.999874
0.999865
0.999858
0.999851
0.999844
0.999837
0.999831
0.999825
0.999819
0.99981
0.9998
0.999787
0.999773
0.999756
0.999738
0.999719
0.999698
0.999675
0.999651
0.999624
0.999596
0.999565
0.999531
0.999495
0.999456
0.999415
0.999371
0.999325
0.999277
0.999227
0.999175
0.999121
0.999065
0.999008
0.998948
0.998888
0.998825
0.998761
0.998695
0.998628
0.998558
0.998487
0.998415
0.99834
0.998263
0.998184
0.998103
0.998019
0.997933
0.997844
0.997752
0.997656
0.997557
0.997454
0.997347
0.997236
0.997121
0.997001
0.996875
0.996744
0.996607
0.996464
0.996315
0.996157
0.995993
0.99582
0.99564
0.995453
0.995258
0.995062
0.994863
0.994668
0.994468
0.99427
0.99409
0.993919
0.993755
0.993596
0.993497
0.993434
0.993464
0.99354
0.993705
0.993988
0.994421
0.994813
0.99546
0.996221
0.996361
0.996071
0.994996
0.98031
0.210698
0.99998
0.99995
0.999927
0.999906
0.999889
0.999874
0.999863
0.999853
0.999845
0.999837
0.99983
0.999822
0.999815
0.999808
0.9998
0.999791
0.999782
0.99977
0.999755
0.999738
0.99972
0.999699
0.999676
0.999652
0.999626
0.999598
0.999569
0.999537
0.999503
0.999467
0.999428
0.999386
0.999342
0.999296
0.999247
0.999197
0.999144
0.999089
0.999033
0.998975
0.998916
0.998854
0.998792
0.998728
0.998662
0.998594
0.998525
0.998455
0.998382
0.998308
0.998232
0.998153
0.998073
0.99799
0.997905
0.997817
0.997725
0.997631
0.997532
0.997429
0.997323
0.997213
0.997098
0.996978
0.996853
0.996722
0.996583
0.996438
0.996287
0.996131
0.995967
0.995795
0.995615
0.99543
0.995238
0.995036
0.99483
0.994631
0.994432
0.994235
0.99404
0.993865
0.993722
0.993587
0.99348
0.993414
0.993413
0.993495
0.993721
0.994015
0.994428
0.994895
0.995486
0.996119
0.995914
0.995876
0.994048
0.975222
0.199392
0.999979
0.999944
0.999917
0.999896
0.999878
0.999863
0.999851
0.999841
0.999832
0.999823
0.999816
0.999808
0.999799
0.999791
0.999782
0.999772
0.999761
0.99975
0.999736
0.999719
0.9997
0.999678
0.999655
0.999629
0.999601
0.999572
0.999542
0.999509
0.999475
0.999438
0.999398
0.999357
0.999312
0.999266
0.999217
0.999166
0.999113
0.999058
0.999002
0.998944
0.998884
0.998823
0.99876
0.998696
0.99863
0.998563
0.998495
0.998425
0.998353
0.99828
0.998205
0.998127
0.998048
0.997966
0.997881
0.997794
0.997705
0.997611
0.997514
0.997413
0.997307
0.997196
0.997082
0.996963
0.996839
0.996708
0.996572
0.996427
0.996275
0.996116
0.995949
0.995778
0.995599
0.995409
0.995215
0.995019
0.994815
0.99461
0.994413
0.994215
0.994025
0.993841
0.993686
0.993575
0.993479
0.993418
0.993438
0.99351
0.993654
0.993895
0.994357
0.994869
0.995523
0.996283
0.995746
0.995619
0.992908
0.969721
0.189282
0.999977
0.999938
0.999909
0.999885
0.999866
0.999851
0.999838
0.999827
0.999818
0.999809
0.999801
0.999793
0.999784
0.999774
0.999764
0.999753
0.999741
0.999728
0.999714
0.999698
0.999679
0.999657
0.999633
0.999606
0.999577
0.999547
0.999515
0.999481
0.999445
0.999408
0.999368
0.999326
0.999282
0.999235
0.999186
0.999135
0.999082
0.999027
0.998971
0.998913
0.998853
0.998792
0.998729
0.998666
0.998601
0.998534
0.998467
0.998397
0.998326
0.998254
0.99818
0.998104
0.998026
0.997946
0.997863
0.997777
0.997688
0.997596
0.9975
0.9974
0.997297
0.997188
0.997074
0.996954
0.99683
0.9967
0.996564
0.996421
0.996271
0.996112
0.995946
0.995772
0.995592
0.995407
0.995212
0.995012
0.994808
0.994595
0.99439
0.9942
0.994022
0.993846
0.993684