/*--------------------------------*- C++ -*----------------------------------*\
  =========                 |
  \\      /  F ield         | OpenFOAM: The Open Source CFD Toolbox
   \\    /   O peration     | Website:  https://openfoam.org
    \\  /    A nd           | Version:  9
     \\/     M anipulation  |
\*---------------------------------------------------------------------------*/
FoamFile
{
    format      ascii;
    class       volScalarField;
    location    "1500";
    object      k;
}
// * * * * * * * * * * * * * * * * * * * * * * * * * * * * * * * * * * * * * //

dimensions      [0 2 -2 0 0 0 0];

internalField   nonuniform List<scalar> 
13446
(
3.27678e-05
3.32831e-05
2.4475e-06
3.37704e-05
2.01298e-07
2.22147e-08
6.78372e-09
6.20024e-08
3.4235e-05
1.01822e-06
7.41191e-08
9.44193e-09
3.58559e-08
4.17507e-07
3.46744e-05
1.81374e-06
8.74074e-08
1.25353e-08
1.20013e-08
3.38393e-07
9.63679e-07
3.5092e-05
2.71359e-06
2.22729e-07
2.05794e-08
1.41398e-09
2.6604e-07
8.56291e-07
1.44099e-06
1.78469e-06
1.92694e-06
2.00005e-06
2.08281e-06
2.18911e-06
2.30898e-06
2.43509e-06
2.56638e-06
2.70398e-06
2.84878e-06
3.00126e-06
3.16178e-06
3.33078e-06
3.50872e-06
3.69606e-06
3.89333e-06
4.10102e-06
4.3197e-06
4.54993e-06
4.79232e-06
5.04748e-06
5.31609e-06
5.59833e-06
3.54851e-05
2.95495e-08
2.03204e-08
6.93727e-11
1.32103e-08
2.0575e-07
7.4742e-07
1.34597e-06
1.72764e-06
1.89353e-06
1.97022e-06
2.04778e-06
2.14909e-06
2.26605e-06
2.39008e-06
2.51915e-06
2.65419e-06
2.79623e-06
2.9458e-06
3.10328e-06
3.26905e-06
3.4436e-06
3.62736e-06
3.82084e-06
4.02455e-06
4.23904e-06
4.46485e-06
4.70257e-06
4.95282e-06
5.21621e-06
5.49364e-06
5.78445e-06
6.09051e-06
4.49098e-05
4.68135e-05
4.87993e-05
5.08532e-05
5.29657e-05
5.51371e-05
5.73618e-05
5.96379e-05
6.19672e-05
6.43436e-05
6.67716e-05
6.9254e-05
7.17903e-05
7.43927e-05
7.70981e-05
7.99744e-05
8.31349e-05
8.66518e-05
9.0666e-05
9.51325e-05
0.000100488
0.000106462
0.000114367
0.000124879
0.000143065
0.000202203
3.58571e-05
7.28028e-07
5.0019e-08
4.84958e-09
2.34947e-09
1.52794e-07
6.41043e-07
1.24342e-06
1.6622e-06
1.85556e-06
1.93882e-06
2.01184e-06
2.10762e-06
2.22117e-06
2.34295e-06
2.46972e-06
2.60214e-06
2.74131e-06
2.88785e-06
3.04214e-06
3.20456e-06
3.37557e-06
3.55559e-06
3.74515e-06
3.94472e-06
4.15483e-06
4.37604e-06
4.60891e-06
4.85405e-06
5.11209e-06
5.38362e-06
5.66955e-06
5.97072e-06
6.28566e-06
4.22518e-05
4.40782e-05
4.59817e-05
4.79512e-05
4.99784e-05
5.20625e-05
5.42057e-05
5.64039e-05
5.86561e-05
6.09614e-05
6.33152e-05
6.57213e-05
6.81829e-05
7.07026e-05
7.3292e-05
7.59767e-05
7.88223e-05
8.19431e-05
8.54171e-05
8.94079e-05
9.38767e-05
9.93254e-05
0.000105422
0.000113811
0.000125095
0.000145274
0.000204932
3.62048e-05
1.08495e-06
4.42593e-08
3.48777e-09
7.11416e-09
1.09408e-07
5.38786e-07
1.13496e-06
1.58852e-06
1.81291e-06
1.90619e-06
1.97575e-06
2.06563e-06
2.17526e-06
2.29458e-06
2.41904e-06
2.54881e-06
2.68505e-06
2.82848e-06
2.97951e-06
3.13851e-06
3.30589e-06
3.4821e-06
3.66763e-06
3.86296e-06
4.06861e-06
4.28511e-06
4.51301e-06
4.75291e-06
5.00545e-06
5.27124e-06
5.55095e-06
5.84519e-06
6.15524e-06
6.48025e-06
6.82192e-06
3.96763e-05
4.14262e-05
4.32454e-05
4.51257e-05
4.70636e-05
4.90619e-05
5.11185e-05
5.32347e-05
5.54059e-05
5.76303e-05
5.991e-05
6.22385e-05
6.46215e-05
6.70594e-05
6.95579e-05
7.21296e-05
7.47968e-05
7.76116e-05
8.06884e-05
8.41149e-05
8.80749e-05
9.25361e-05
9.80629e-05
0.000104261
0.000113154
0.000125262
0.000148262
0.000208995
3.65359e-05
1.36965e-06
1.2153e-07
4.63054e-09
8.28285e-09
7.37512e-08
4.42883e-07
1.02204e-06
1.50615e-06
1.76452e-06
1.87169e-06
1.93936e-06
2.0231e-06
2.12824e-06
2.24481e-06
2.36691e-06
2.494e-06
2.62725e-06
2.76751e-06
2.91519e-06
3.07067e-06
3.23434e-06
3.40665e-06
3.58806e-06
3.77903e-06
3.98009e-06
4.19177e-06
4.4146e-06
4.64915e-06
4.89604e-06
5.15589e-06
5.42934e-06
5.71713e-06
6.01989e-06
6.33855e-06
6.67413e-06
7.02491e-06
2.83194e-05
2.9647e-05
3.10392e-05
3.2492e-05
3.40014e-05
3.55646e-05
3.71839e-05
3.88607e-05
4.05972e-05
4.23893e-05
4.42399e-05
4.61484e-05
4.81182e-05
5.01467e-05
5.22328e-05
5.43732e-05
5.65701e-05
5.88207e-05
6.11238e-05
6.34792e-05
6.58952e-05
6.8372e-05
7.09213e-05
7.35641e-05
7.63486e-05
7.93802e-05
8.27569e-05
8.66741e-05
9.11094e-05
9.67082e-05
0.000102977
0.000112401
0.000125357
0.000151785
0.000214658
3.68466e-05
1.73887e-06
1.9668e-08
3.92053e-09
1.07245e-09
4.60128e-08
3.54606e-07
9.06309e-07
1.41499e-06
1.70942e-06
1.83467e-06
1.90263e-06
1.98028e-06
2.0803e-06
2.19377e-06
2.31342e-06
2.43784e-06
2.56806e-06
2.70505e-06
2.84931e-06
3.00119e-06
3.16107e-06
3.32938e-06
3.50656e-06
3.6931e-06
3.88948e-06
4.09623e-06
4.31385e-06
4.54294e-06
4.78406e-06
5.03784e-06
5.30492e-06
5.58596e-06
5.88169e-06
6.19285e-06
6.52004e-06
6.86467e-06
7.22594e-06
7.60517e-06
2.64118e-05
2.76707e-05
2.89894e-05
3.03643e-05
3.17917e-05
3.32721e-05
3.48061e-05
3.63966e-05
3.80425e-05
3.97464e-05
4.15071e-05
4.33279e-05
4.5206e-05
4.71434e-05
4.91406e-05
5.11969e-05
5.33074e-05
5.54751e-05
5.76936e-05
5.99673e-05
6.22952e-05
6.46839e-05
6.71361e-05
6.96648e-05
7.22817e-05
7.50379e-05
7.80223e-05
8.1339e-05
8.52077e-05
8.96027e-05
9.52586e-05
0.000101567
0.00011155
0.000125302
0.0001557
0.000222072
3.71353e-05
1.99737e-06
6.10907e-08
1.01157e-08
1.17645e-09
2.46949e-08
2.74818e-07
7.89711e-07
1.31527e-06
1.64633e-06
1.79395e-06
1.86524e-06
1.93736e-06
2.03167e-06
2.14154e-06
2.2586e-06
2.38034e-06
2.50751e-06
2.64118e-06
2.78193e-06
2.93013e-06
3.08614e-06
3.25036e-06
3.42324e-06
3.60523e-06
3.79684e-06
3.99854e-06
4.21086e-06
4.43436e-06
4.66959e-06
4.91719e-06
5.17774e-06
5.45193e-06
5.74044e-06
6.04399e-06
6.36333e-06
6.69918e-06
7.05249e-06
7.42443e-06
7.81409e-06
8.2229e-06
1.93509e-05
2.03115e-05
2.13083e-05
2.23511e-05
2.34442e-05
2.45881e-05
2.57819e-05
2.70272e-05
2.83227e-05
2.96675e-05
3.10643e-05
3.25152e-05
3.40198e-05
3.55802e-05
3.71966e-05
3.88698e-05
4.0599e-05
4.2388e-05
4.42351e-05
4.61414e-05
4.81067e-05
5.01283e-05
5.22061e-05
5.43407e-05
5.65294e-05
5.87731e-05
6.10696e-05
6.34282e-05
6.58524e-05
6.83559e-05
7.09452e-05
7.36664e-05
7.66066e-05
7.98649e-05
8.36778e-05
8.80148e-05
9.37207e-05
0.00010004
0.0001106
0.000125106
0.000159599
0.000230115
3.74087e-05
2.39249e-06
1.41384e-07
1.95257e-08
2.55734e-09
8.54054e-09
2.04044e-07
6.74204e-07
1.20707e-06
1.5733e-06
1.74768e-06
1.82652e-06
1.89455e-06
1.98269e-06
2.08828e-06
2.20249e-06
2.32154e-06
2.44566e-06
2.57595e-06
2.71313e-06
2.85756e-06
3.00962e-06
3.16968e-06
3.33818e-06
3.51555e-06
3.70227e-06
3.89884e-06
4.10576e-06
4.32356e-06
4.5528e-06
4.79407e-06
5.04799e-06
5.31518e-06
5.59633e-06
5.89213e-06
6.2033e-06
6.53065e-06
6.87493e-06
7.23688e-06
7.61759e-06
8.01827e-06
8.4379e-06
8.87907e-06
9.34338e-06
9.83009e-06
1.88646e-05
1.97992e-05
2.07749e-05
2.17983e-05
2.28705e-05
2.39903e-05
2.51576e-05
2.63733e-05
2.76382e-05
2.89535e-05
3.03213e-05
3.1742e-05
3.32162e-05
3.47451e-05
3.6329e-05
3.79703e-05
3.96667e-05
4.14223e-05
4.32358e-05
4.51086e-05
4.70392e-05
4.90272e-05
5.10723e-05
5.31711e-05
5.53257e-05
5.75352e-05
5.98013e-05
6.21293e-05
6.45239e-05
6.6994e-05
6.95546e-05
7.22421e-05
7.5136e-05
7.83362e-05
8.20864e-05
8.63626e-05
9.21052e-05
9.8383e-05
0.00010956
0.000124763
0.000163177
0.000237382
3.7663e-05
2.82676e-06
2.368e-07
1.15809e-08
1.56009e-09
4.34986e-10
1.43771e-07
5.6022e-07
1.08925e-06
1.48838e-06
1.69436e-06
1.78593e-06
1.85198e-06
1.93369e-06
2.03419e-06
2.14516e-06
2.26147e-06
2.38255e-06
2.50944e-06
2.64298e-06
2.78358e-06
2.93161e-06
3.08743e-06
3.25146e-06
3.42412e-06
3.60588e-06
3.79723e-06
3.99863e-06
4.21064e-06
4.43379e-06
4.66863e-06
4.91579e-06
5.17586e-06
5.44952e-06
5.73744e-06
6.04033e-06
6.35895e-06
6.69404e-06
7.04646e-06
7.41703e-06
7.80651e-06
8.2161e-06
8.64669e-06
9.09904e-06
9.57454e-06
1.00724e-05
1.05939e-05
1.8363e-05
1.92742e-05
2.02308e-05
2.12334e-05
2.22814e-05
2.33745e-05
2.45139e-05
2.57011e-05
2.69373e-05
2.82233e-05
2.95608e-05
3.095e-05
3.23921e-05
3.38886e-05
3.54401e-05
3.7047e-05
3.87104e-05
4.04312e-05
4.2209e-05
4.40468e-05
4.59419e-05
4.78941e-05
4.99016e-05
5.19643e-05
5.40845e-05
5.6259e-05
5.84898e-05
6.07836e-05
6.31436e-05
6.55826e-05
6.81104e-05
7.07632e-05
7.36107e-05
7.6749e-05
8.04378e-05
8.46328e-05
9.04138e-05
9.66098e-05
0.000108459
0.000124256
0.000166406
0.000243297
3.79021e-05
3.59059e-06
1.42407e-09
1.17951e-09
9.42642e-10
6.637e-09
9.73213e-08
4.48301e-07
9.61252e-07
1.39294e-06
1.63613e-06
1.74427e-06
1.80939e-06
1.8844e-06
1.97934e-06
2.08676e-06
2.20023e-06
2.31826e-06
2.44172e-06
2.57155e-06
2.70827e-06
2.8522e-06
3.00371e-06
3.1632e-06
3.33108e-06
3.5078e-06
3.69383e-06
3.88964e-06
4.09576e-06
4.3127e-06
4.541e-06
4.78129e-06
5.03414e-06
5.30018e-06
5.58009e-06
5.87456e-06
6.18432e-06
6.5101e-06
6.85272e-06
7.213e-06
7.59178e-06
7.98993e-06
8.40837e-06
8.84811e-06
9.31001e-06
9.79534e-06
1.03056e-05
1.08396e-05
1.14001e-05
1.19888e-05
1.26071e-05
1.32556e-05
1.39354e-05
1.46478e-05
1.5394e-05
1.61754e-05
1.69935e-05
1.78494e-05
1.87456e-05
1.96827e-05
2.06612e-05
2.16823e-05
2.27477e-05
2.38586e-05
2.50168e-05
2.6223e-05
2.74784e-05
2.87843e-05
3.01414e-05
3.1551e-05
3.30136e-05
3.45303e-05
3.61023e-05
3.77304e-05
3.94148e-05
4.11575e-05
4.29578e-05
4.48149e-05
4.67288e-05
4.86983e-05
5.07233e-05
5.28046e-05
5.49428e-05
5.71369e-05
5.93936e-05
6.17154e-05
6.41172e-05
6.66104e-05
6.9224e-05
7.20289e-05
7.51044e-05
7.87281e-05
8.28346e-05
8.86522e-05
9.47225e-05
0.000107303
0.000123701
0.000169111
0.000246253
3.81191e-05
5.31269e-07
1.79118e-08
1.94419e-09
4.56764e-10
1.68766e-09
6.15249e-08
3.44158e-07
8.30196e-07
1.29795e-06
1.58356e-06
1.70569e-06
1.76578e-06
1.83313e-06
1.92321e-06
2.0275e-06
2.13806e-06
2.25289e-06
2.37285e-06
2.49894e-06
2.63171e-06
2.77148e-06
2.91862e-06
3.0735e-06
3.23652e-06
3.40813e-06
3.58877e-06
3.77891e-06
3.97904e-06
4.18969e-06
4.41137e-06
4.64467e-06
4.89017e-06
5.14847e-06
5.42026e-06
5.70618e-06
6.00696e-06
6.3233e-06
6.65599e-06
7.0058e-06
7.3736e-06
7.76024e-06
8.16662e-06
8.59368e-06
9.04239e-06
9.5138e-06
1.00087e-05
1.05285e-05
1.10744e-05
1.16472e-05
1.22481e-05
1.28782e-05
1.35389e-05
1.42313e-05
1.49568e-05
1.57167e-05
1.65124e-05
1.73452e-05
1.8216e-05
1.91263e-05
2.00776e-05
2.10712e-05
2.21086e-05
2.31908e-05
2.43191e-05
2.54944e-05
2.67184e-05
2.79916e-05
2.93155e-05
3.0691e-05
3.21185e-05
3.35999e-05
3.51363e-05
3.67278e-05
3.83747e-05
4.00789e-05
4.18401e-05
4.3659e-05
4.55338e-05
4.74626e-05
4.94476e-05
5.14889e-05
5.35861e-05
5.57422e-05
5.79588e-05
6.02422e-05
6.26025e-05
6.50576e-05
6.76312e-05
7.03905e-05
7.3404e-05
7.69559e-05
8.09673e-05
8.68188e-05
9.27237e-05
0.000106165
0.000123086
0.000171675
0.000246744
3.83203e-05
1.14511e-06
1.21213e-08
6.8673e-09
6.64111e-10
3.61744e-09
3.6224e-08
2.5496e-07
7.11203e-07
1.22271e-06
1.55416e-06
1.67803e-06
1.72043e-06
1.77693e-06
1.86432e-06
1.96737e-06
2.07532e-06
2.18667e-06
2.30292e-06
2.42521e-06
2.55399e-06
2.68957e-06
2.83227e-06
2.98247e-06
3.14057e-06
3.30699e-06
3.48217e-06
3.66655e-06
3.86064e-06
4.0649e-06
4.27988e-06
4.5061e-06
4.74416e-06
4.99465e-06
5.2582e-06
5.53546e-06
5.82711e-06
6.13386e-06
6.45646e-06
6.7957e-06
7.15239e-06
7.52735e-06
7.92148e-06
8.33566e-06
8.77086e-06
9.22804e-06
9.70826e-06
1.02125e-05
1.07418e-05
1.12973e-05
1.18802e-05
1.24917e-05
1.31329e-05
1.3805e-05
1.45094e-05
1.52473e-05
1.60199e-05
1.68286e-05
1.76746e-05
1.85593e-05
1.94843e-05
2.04503e-05
2.1459e-05
2.25117e-05
2.36091e-05
2.47532e-05
2.59445e-05
2.71845e-05
2.84739e-05
2.98146e-05
3.12069e-05
3.26516e-05
3.41507e-05
3.57035e-05
3.73118e-05
3.89764e-05
4.06973e-05
4.24742e-05
4.43084e-05
4.61954e-05
4.81391e-05
5.0139e-05
5.21938e-05
5.43072e-05
5.648e-05
5.87206e-05
6.10391e-05
6.34514e-05
6.59804e-05
6.86869e-05
7.16376e-05
7.51157e-05
7.90328e-05
8.49139e-05
9.06261e-05
0.000105089
0.000122527
0.000174183
0.000244535
3.84991e-05
1.79489e-06
1.45541e-07
6.89131e-10
1.45617e-09
1.67527e-09
1.95195e-08
1.84101e-07
6.10443e-07
1.17053e-06
1.55345e-06
1.66884e-06
1.6781e-06
1.71625e-06
1.80126e-06
1.90541e-06
2.01195e-06
2.11985e-06
2.23214e-06
2.35046e-06
2.4752e-06
2.60655e-06
2.74477e-06
2.89024e-06
3.04336e-06
3.20453e-06
3.37418e-06
3.55275e-06
3.7407e-06
3.9385e-06
4.14668e-06
4.36577e-06
4.5963e-06
4.83886e-06
5.09406e-06
5.36255e-06
5.64498e-06
5.94204e-06
6.25446e-06
6.58299e-06
6.92842e-06
7.29157e-06
7.67328e-06
8.07442e-06
8.49597e-06
8.93881e-06
9.40398e-06
9.8924e-06
1.04053e-05
1.09436e-05
1.15085e-05
1.21011e-05
1.27226e-05
1.33741e-05
1.40569e-05
1.47724e-05
1.55216e-05
1.6306e-05
1.71268e-05
1.79852e-05
1.88827e-05
1.98206e-05
2.07998e-05
2.18224e-05
2.28884e-05
2.40003e-05
2.51583e-05
2.63643e-05
2.76189e-05
2.89229e-05
3.02779e-05
3.16849e-05
3.3145e-05
3.4658e-05
3.62265e-05
3.785e-05
3.95296e-05
4.12632e-05
4.30534e-05
4.48975e-05
4.67972e-05
4.87521e-05
5.07624e-05
5.28303e-05
5.49588e-05
5.71523e-05
5.94243e-05
6.17887e-05
6.42718e-05
6.6925e-05
6.98138e-05
7.32095e-05
7.70293e-05
8.29265e-05
8.84481e-05
0.000104195
0.000122034
0.000176952
0.000240454
3.86667e-05
5.806e-07
4.67466e-08
4.67341e-09
1.09564e-10
7.67338e-10
8.60464e-09
1.26741e-07
5.084e-07
1.09615e-06
1.54212e-06
1.67438e-06
1.65653e-06
1.66507e-06
1.73692e-06
1.83943e-06
1.94624e-06
2.05218e-06
2.16079e-06
2.27493e-06
2.39547e-06
2.52251e-06
2.65622e-06
2.79693e-06
2.94502e-06
3.10089e-06
3.26496e-06
3.43764e-06
3.61939e-06
3.81068e-06
4.012e-06
4.22386e-06
4.44678e-06
4.68136e-06
4.92814e-06
5.18776e-06
5.46088e-06
5.74814e-06
6.05026e-06
6.36797e-06
6.70202e-06
7.05322e-06
7.42238e-06
7.81036e-06
8.21807e-06
8.64642e-06
9.09641e-06
9.5689e-06
1.00651e-05
1.05858e-05
1.11324e-05
1.17059e-05
1.23073e-05
1.2938e-05
1.3599e-05
1.42916e-05
1.50172e-05
1.57768e-05
1.65718e-05
1.74035e-05
1.82733e-05
1.91822e-05
2.01318e-05
2.11234e-05
2.21575e-05
2.32362e-05
2.43601e-05
2.5531e-05
2.67493e-05
2.80162e-05
2.93331e-05
3.07016e-05
3.21215e-05
3.35942e-05
3.51212e-05
3.67012e-05
3.83369e-05
4.00268e-05
4.17718e-05
4.35705e-05
4.54243e-05
4.73334e-05
4.92962e-05
5.13153e-05
5.33948e-05
5.55399e-05
5.77625e-05
6.00754e-05
6.25051e-05
6.51008e-05
6.79246e-05
7.12361e-05
7.4973e-05
8.08529e-05
8.62289e-05
0.000103517
0.000121561
0.000180114
0.000234593
3.88061e-05
1.8281e-06
1.45885e-07
8.50705e-10
7.53366e-10
2.46339e-10
2.21774e-09
7.73744e-08
3.79339e-07
9.29013e-07
1.44186e-06
1.67336e-06
1.68583e-06
1.65783e-06
1.68554e-06
1.76866e-06
1.87435e-06
1.98201e-06
2.08895e-06
2.19904e-06
2.31504e-06
2.4376e-06
2.56676e-06
2.70267e-06
2.84569e-06
2.99622e-06
3.15465e-06
3.32141e-06
3.49691e-06
3.68164e-06
3.87602e-06
4.08059e-06
4.29584e-06
4.52234e-06
4.76064e-06
5.01134e-06
5.27505e-06
5.55244e-06
5.84418e-06
6.15097e-06
6.47355e-06
6.81269e-06
7.16919e-06
7.5439e-06
7.93762e-06
8.35137e-06
8.78597e-06
9.24236e-06
9.72171e-06
1.02248e-05
1.07529e-05
1.1307e-05
1.18882e-05
1.24977e-05
1.31366e-05
1.38062e-05
1.45077e-05
1.52423e-05
1.60112e-05
1.68156e-05
1.76572e-05
1.85367e-05
1.9456e-05
2.04159e-05
2.14173e-05
2.24626e-05
2.35517e-05
2.46866e-05
2.58681e-05
2.7097e-05
2.8375e-05
2.9703e-05
3.10816e-05
3.25121e-05
3.39954e-05
3.55318e-05
3.71226e-05
3.87663e-05
4.04638e-05
4.22146e-05
4.40196e-05
4.58779e-05
4.77911e-05
4.97594e-05
5.17882e-05
5.38802e-05
5.60483e-05
5.83071e-05
6.06814e-05
6.32176e-05
6.59775e-05
6.92026e-05
7.28746e-05
7.86791e-05
8.40611e-05
0.000102901
0.000121168
0.000183698
0.000227217
3.8985e-05
3.5672e-06
2.84502e-07
5.51904e-11
3.42588e-12
5.21187e-11
3.64863e-09
3.94515e-08
2.36913e-07
6.76928e-07
1.23198e-06
1.6475e-06
1.78483e-06
1.73224e-06
1.67303e-06
1.69995e-06
1.79353e-06
1.90615e-06
2.01565e-06
2.12307e-06
2.2343e-06
2.35203e-06
2.4765e-06
2.60761e-06
2.74554e-06
2.89069e-06
3.04345e-06
3.20424e-06
3.37346e-06
3.55156e-06
3.73898e-06
3.93622e-06
4.14376e-06
4.36213e-06
4.59188e-06
4.83358e-06
5.08784e-06
5.35528e-06
5.63655e-06
5.93235e-06
6.24338e-06
6.57038e-06
6.91413e-06
7.27546e-06
7.65511e-06
8.05411e-06
8.47325e-06
8.9134e-06
9.37571e-06
9.86101e-06
1.03704e-05
1.09049e-05
1.14657e-05
1.20539e-05
1.26704e-05
1.33168e-05
1.39939e-05
1.47031e-05
1.54456e-05
1.62226e-05
1.70354e-05
1.78852e-05
1.87733e-05
1.97012e-05
2.06694e-05
2.16802e-05
2.27339e-05
2.3832e-05
2.49757e-05
2.61655e-05
2.74033e-05
2.86897e-05
3.00257e-05
3.14128e-05
3.28515e-05
3.43423e-05
3.58854e-05
3.74811e-05
3.91301e-05
4.08297e-05
4.25839e-05
4.43885e-05
4.62494e-05
4.81649e-05
5.01407e-05
5.21779e-05
5.42898e-05
5.64896e-05
5.88053e-05
6.12816e-05
6.39822e-05
6.7127e-05
7.07629e-05
7.64056e-05
8.20625e-05
0.000101883
0.000120917
0.000187805
0.000218935
3.95576e-05
1.87439e-06
1.96622e-07
3.25237e-10
7.65391e-10
1.36908e-10
3.70897e-10
1.91593e-08
1.30574e-07
4.50974e-07
1.00629e-06
1.60123e-06
1.91902e-06
1.8793e-06
1.71588e-06
1.64956e-06
1.70869e-06
1.82273e-06
1.9388e-06
2.04653e-06
2.15359e-06
2.26614e-06
2.38565e-06
2.51187e-06
2.64472e-06
2.78448e-06
2.93154e-06
3.08632e-06
3.24922e-06
3.42067e-06
3.60109e-06
3.79095e-06
3.99074e-06
4.20095e-06
4.42211e-06
4.65477e-06
4.89952e-06
5.15697e-06
5.42773e-06
5.71248e-06
6.01189e-06
6.32669e-06
6.65761e-06
7.00546e-06
7.37099e-06
7.75513e-06
8.15869e-06
8.5825e-06
9.02768e-06
9.49505e-06
9.98566e-06
1.05005e-05
1.10407e-05
1.16072e-05
1.22012e-05
1.2824e-05
1.34765e-05
1.41599e-05
1.48756e-05
1.56248e-05
1.64086e-05
1.7228e-05
1.8085e-05
1.89799e-05
1.99145e-05
2.08898e-05
2.19072e-05
2.29677e-05
2.40724e-05
2.52226e-05
2.64187e-05
2.76631e-05
2.89555e-05
3.02973e-05
3.16895e-05
3.31324e-05
3.46267e-05
3.6172e-05
3.77696e-05
3.94179e-05
4.11173e-05
4.28693e-05
4.46751e-05
4.65344e-05
4.8454e-05
5.04355e-05
5.24911e-05
5.46353e-05
5.68947e-05
5.93161e-05
6.19624e-05
6.50293e-05
6.86554e-05
7.4054e-05
8.03121e-05
9.96726e-05
0.000121245
0.000191082
0.000210498
4.04504e-05
2.9143e-06
2.78981e-07
2.43969e-08
2.13154e-09
9.33033e-11
2.35301e-09
1.35541e-08
7.77319e-08
3.15916e-07
8.38293e-07
1.52272e-06
1.98711e-06
2.00697e-06
1.78458e-06
1.62692e-06
1.6328e-06
1.73605e-06
1.85755e-06
1.96828e-06
2.07269e-06
2.18013e-06
2.29441e-06
2.41561e-06
2.54335e-06
2.67771e-06
2.81906e-06
2.96782e-06
3.12438e-06
3.28914e-06
3.46253e-06
3.64499e-06
3.83699e-06
4.039e-06
4.25153e-06
4.47512e-06
4.71033e-06
4.95773e-06
5.21793e-06
5.49157e-06
5.77931e-06
6.08184e-06
6.39987e-06
6.73417e-06
7.0855e-06
7.4547e-06
7.84258e-06
8.24994e-06
8.67787e-06
9.12715e-06
9.5988e-06
1.00938e-05
1.06132e-05
1.1158e-05
1.17292e-05
1.23281e-05
1.29557e-05
1.36131e-05
1.43017e-05
1.50225e-05
1.57769e-05
1.65656e-05
1.73906e-05
1.82524e-05
1.91524e-05
2.0092e-05
2.10724e-05
2.20945e-05
2.31592e-05
2.42688e-05
2.54226e-05
2.66229e-05
2.78708e-05
2.91663e-05
3.05107e-05
3.1905e-05
3.33487e-05
3.48422e-05
3.63868e-05
3.79816e-05
3.9626e-05
4.1324e-05
4.30742e-05
4.48791e-05
4.67439e-05
4.86705e-05
5.06719e-05
5.27627e-05
5.49696e-05
5.73401e-05
5.99437e-05
6.29481e-05
6.65686e-05
7.16966e-05
7.87048e-05
9.5929e-05
0.00012225
0.000190107
0.000202904
3.48237e-05
1.16035e-06
1.16048e-07
9.2004e-09
5.74279e-10
1.1664e-10
3.62664e-09
1.09453e-08
5.07127e-08
2.33111e-07
6.9356e-07
1.36499e-06
1.89499e-06
2.0017e-06
1.80425e-06
1.61017e-06
1.57255e-06
1.65594e-06
1.7758e-06
1.88817e-06
1.99077e-06
2.0937e-06
2.20279e-06
2.31888e-06
2.44145e-06
2.57039e-06
2.70601e-06
2.84871e-06
2.9989e-06
3.15696e-06
3.32328e-06
3.49831e-06
3.68248e-06
3.87626e-06
4.08013e-06
4.2946e-06
4.52021e-06
4.75751e-06
5.0071e-06
5.26957e-06
5.54558e-06
5.83577e-06
6.14083e-06
6.4615e-06
6.79852e-06
7.15266e-06
7.52474e-06
7.91559e-06
8.32609e-06
8.75712e-06
9.20967e-06
9.68457e-06
1.0183e-05
1.07058e-05
1.1254e-05
1.18289e-05
1.24313e-05
1.30625e-05
1.37237e-05
1.44158e-05
1.51402e-05
1.5898e-05
1.66905e-05
1.75188e-05
1.83839e-05
1.92873e-05
2.02299e-05
2.12133e-05
2.2238e-05
2.33054e-05
2.4417e-05
2.55728e-05
2.67748e-05
2.80236e-05
2.93198e-05
3.06648e-05
3.20576e-05
3.34995e-05
3.49914e-05
3.65326e-05
3.81243e-05
3.97684e-05
4.14662e-05
4.32176e-05
4.50305e-05
4.69078e-05
4.88615e-05
5.09075e-05
5.30705e-05
5.53974e-05
5.79613e-05
6.0912e-05
6.45154e-05
6.94165e-05
7.69559e-05
9.1573e-05
0.000122521
0.000181347
0.000197075
2.0844e-05
5.14947e-07
2.09889e-08
3.82808e-10
4.5217e-11
6.89099e-10
2.9108e-09
5.69953e-09
2.82972e-08
1.62364e-07
5.34632e-07
1.12447e-06
1.65467e-06
1.84026e-06
1.72181e-06
1.55943e-06
1.51776e-06
1.58836e-06
1.69975e-06
1.80792e-06
1.90721e-06
2.00611e-06
2.1105e-06
2.22156e-06
2.3389e-06
2.46236e-06
2.5922e-06
2.72883e-06
2.8726e-06
3.02392e-06
3.18315e-06
3.35069e-06
3.52699e-06
3.71248e-06
3.90763e-06
4.11292e-06
4.32888e-06
4.55603e-06
4.79493e-06
5.04617e-06
5.31035e-06
5.58812e-06
5.88013e-06
6.18706e-06
6.50968e-06
6.84863e-06
7.20481e-06
7.57896e-06
7.97189e-06
8.38456e-06
8.81775e-06
9.27246e-06
9.74967e-06
1.02503e-05
1.07754e-05
1.13259e-05
1.1903e-05
1.25078e-05
1.31413e-05
1.38047e-05
1.44991e-05
1.52258e-05
1.59857e-05
1.67804e-05
1.76104e-05
1.84775e-05
1.93826e-05
2.03269e-05
2.13118e-05
2.23377e-05
2.34067e-05
2.4519e-05
2.56761e-05
2.68786e-05
2.81278e-05
2.94249e-05
3.07682e-05
3.21606e-05
3.36016e-05
3.50921e-05
3.66343e-05
3.82286e-05
3.98774e-05
4.15829e-05
4.33504e-05
4.51839e-05
4.70954e-05
4.91007e-05
5.12251e-05
5.35145e-05
5.6041e-05
5.89465e-05
6.25101e-05
6.72626e-05
7.49064e-05
8.77978e-05
0.000119947
0.00016681
0.000187991
4.68568e-05
6.01953e-07
2.05447e-08
1.24543e-09
2.49581e-10
6.92315e-11
6.21018e-10
1.60782e-09
9.57763e-09
1.07106e-07
4.07886e-07
9.01454e-07
1.37231e-06
1.5884e-06
1.55927e-06
1.47304e-06
1.46161e-06
1.52954e-06
1.62896e-06
1.72814e-06
1.82234e-06
1.91738e-06
2.0175e-06
2.12367e-06
2.23573e-06
2.35366e-06
2.4777e-06
2.60823e-06
2.74558e-06
2.89013e-06
3.04223e-06
3.20228e-06
3.37069e-06
3.54788e-06
3.73429e-06
3.93039e-06
4.13668e-06
4.35365e-06
4.58186e-06
4.82184e-06
5.07419e-06
5.33952e-06
5.61846e-06
5.91166e-06
6.21983e-06
6.54365e-06
6.88391e-06
7.24138e-06
7.61677e-06
8.01106e-06
8.42495e-06
8.85944e-06
9.3155e-06
9.7939e-06
1.02959e-05
1.08224e-05
1.13743e-05
1.19528e-05
1.2559e-05
1.31939e-05
1.38588e-05
1.45547e-05
1.52828e-05
1.60445e-05
1.68403e-05
1.76723e-05
1.8541e-05
1.94476e-05
2.03938e-05
2.13805e-05
2.24086e-05
2.34793e-05
2.45943e-05
2.57537e-05
2.69584e-05
2.82105e-05
2.95087e-05
3.08556e-05
3.22509e-05
3.36973e-05
3.51943e-05
3.67454e-05
3.83517e-05
4.00156e-05
4.1744e-05
4.35392e-05
4.54149e-05
4.7383e-05
4.94708e-05
5.1723e-05
5.42118e-05
5.70717e-05
6.05736e-05
6.52137e-05
7.2617e-05
8.47297e-05
0.000115679
0.000153521
0.000177529
4.03716e-05
2.17578e-06
1.44357e-07
1.72689e-09
8.08256e-10
1.10147e-10
1.29666e-10
2.21424e-10
5.94974e-09
5.23735e-08
2.7737e-07
6.96044e-07
1.12606e-06
1.36871e-06
1.41793e-06
1.39956e-06
1.41129e-06
1.47137e-06
1.55719e-06
1.64814e-06
1.73832e-06
1.82995e-06
1.92585e-06
2.02715e-06
2.13402e-06
2.24654e-06
2.36492e-06
2.48949e-06
2.62057e-06
2.75852e-06
2.90368e-06
3.05642e-06
3.21715e-06
3.38625e-06
3.56417e-06
3.75134e-06
3.94824e-06
4.15534e-06
4.37317e-06
4.60225e-06
4.84315e-06
5.09646e-06
5.36276e-06
5.64271e-06
5.93695e-06
6.24619e-06
6.57111e-06
6.91251e-06
7.27109e-06
7.64775e-06
8.04315e-06
8.45834e-06
8.89412e-06
9.35147e-06
9.83145e-06
1.0335e-05
1.08631e-05
1.14169e-05
1.19974e-05
1.26056e-05
1.32429e-05
1.39101e-05
1.46087e-05
1.53397e-05
1.61041e-05
1.69036e-05
1.77389e-05
1.86116e-05
1.95222e-05
2.04732e-05
2.14642e-05
2.24977e-05
2.35741e-05
2.46952e-05
2.58608e-05
2.70737e-05
2.83329e-05
2.96401e-05
3.09972e-05
3.24046e-05
3.38641e-05
3.53771e-05
3.6946e-05
3.85742e-05
4.02646e-05
4.2023e-05
4.38617e-05
4.57928e-05
4.78415e-05
5.00524e-05
5.24969e-05
5.53045e-05
5.87328e-05
6.32597e-05
7.03061e-05
8.19193e-05
0.000109896
0.00014279
0.000168181
3.95442e-05
3.64566e-06
2.44382e-08
3.04819e-10
1.5827e-10
4.72885e-11
4.18738e-11
2.43716e-10
1.69927e-09
2.11787e-08
1.5655e-07
4.71673e-07
8.6381e-07
1.15781e-06
1.29478e-06
1.33889e-06
1.3695e-06
1.42173e-06
1.49462e-06
1.57738e-06
1.66362e-06
1.75237e-06
1.8448e-06
1.94194e-06
2.04429e-06
2.15209e-06
2.26556e-06
2.38497e-06
2.51063e-06
2.64288e-06
2.78205e-06
2.92851e-06
3.08263e-06
3.2448e-06
3.41543e-06
3.59496e-06
3.78384e-06
3.98252e-06
4.19152e-06
4.41134e-06
4.64253e-06
4.88565e-06
5.14129e-06
5.41006e-06
5.69259e-06
5.98957e-06
6.30169e-06
6.62962e-06
6.9742e-06
7.33616e-06
7.71625e-06
8.11544e-06
8.53445e-06
8.97445e-06
9.43627e-06
9.92092e-06
1.04295e-05
1.0963e-05
1.15224e-05
1.21089e-05
1.27236e-05
1.33674e-05
1.40418e-05
1.47477e-05
1.54863e-05
1.62591e-05
1.70668e-05
1.79113e-05
1.87928e-05
1.97138e-05
2.06744e-05
2.16768e-05
2.27214e-05
2.38099e-05
2.49436e-05
2.61236e-05
2.73513e-05
2.86263e-05
2.99518e-05
3.13264e-05
3.2754e-05
3.42336e-05
3.57672e-05
3.7358e-05
3.901e-05
4.07272e-05
4.25232e-05
4.44096e-05
4.6415e-05
4.85796e-05
5.09724e-05
5.37159e-05
5.70508e-05
6.14343e-05
6.81127e-05
7.90387e-05
0.000104878
0.000134506
0.000160475
3.94608e-05
8.59153e-07
1.05992e-07
2.22045e-16
3.25148e-11
7.07191e-11
2.82425e-11
1.02936e-10
6.86045e-10
1.46395e-08
1.20212e-07
3.93198e-07
7.71908e-07
1.0854e-06
1.2492e-06
1.31084e-06
1.34676e-06
1.39636e-06
1.46451e-06
1.54375e-06
1.62799e-06
1.71528e-06
1.80609e-06
1.90131e-06
2.00157e-06
2.10717e-06
2.21837e-06
2.33541e-06
2.45859e-06
2.58823e-06
2.72467e-06
2.86827e-06
3.01939e-06
3.17843e-06
3.34578e-06
3.52187e-06
3.70715e-06
3.90208e-06
4.10714e-06
4.32285e-06
4.54973e-06
4.78835e-06
5.03926e-06
5.30311e-06
5.58046e-06
5.87206e-06
6.17851e-06
6.50055e-06
6.83894e-06
7.19439e-06
7.56771e-06
7.95974e-06
8.3713e-06
8.80339e-06
9.25683e-06
9.73272e-06
1.02319e-05
1.07555e-05
1.13044e-05
1.18796e-05
1.24824e-05
1.31134e-05
1.37742e-05
1.44652e-05
1.51879e-05
1.59434e-05
1.67326e-05
1.75572e-05
1.84177e-05
1.93166e-05
2.02542e-05
2.12326e-05
2.22524e-05
2.33152e-05
2.4424e-05
2.55781e-05
2.67809e-05
2.80305e-05
2.93293e-05
3.0676e-05
3.20738e-05
3.35193e-05
3.50144e-05
3.65617e-05
3.81686e-05
3.98379e-05
4.15838e-05
4.34159e-05
4.53664e-05
4.74698e-05
4.97941e-05
5.24501e-05
5.56616e-05
5.98673e-05
6.61727e-05
7.62436e-05
0.000100607
0.000127651
0.000153131
3.94474e-05
3.13814e-06
2.22278e-07
1.77599e-08
1.26835e-10
4.87045e-12
2.31944e-11
1.91101e-10
2.24042e-09
2.64787e-08
1.6043e-07
4.60203e-07
8.4142e-07
1.13553e-06
1.2787e-06
1.33171e-06
1.36934e-06
1.4237e-06
1.49532e-06
1.57645e-06
1.66207e-06
1.75091e-06
1.84353e-06
1.94076e-06
2.04315e-06
2.151e-06
2.26456e-06
2.38408e-06
2.50989e-06
2.6423e-06
2.78166e-06
2.92835e-06
3.08273e-06
3.24519e-06
3.41617e-06
3.59608e-06
3.78539e-06
3.98456e-06
4.1941e-06
4.41452e-06
4.64637e-06
4.89021e-06
5.14663e-06
5.41627e-06
5.69972e-06
5.99772e-06
6.31087e-06
6.63999e-06
6.98572e-06
7.34894e-06
7.73034e-06
8.13084e-06
8.55125e-06
8.99241e-06
9.4553e-06
9.94089e-06
1.04499e-05
1.09836e-05
1.15428e-05
1.21283e-05
1.27414e-05
1.33827e-05
1.40537e-05
1.47547e-05
1.54871e-05
1.62516e-05
1.70492e-05
1.78813e-05
1.87485e-05
1.96522e-05
2.0593e-05
2.15724e-05
2.25906e-05
2.36494e-05
2.475e-05
2.5892e-05
2.70778e-05
2.8304e-05
2.95726e-05
3.0881e-05
3.22303e-05
3.36158e-05
3.5041e-05
3.65151e-05
3.80452e-05
3.96416e-05
4.13122e-05
4.30667e-05
4.49312e-05
4.6944e-05
4.91668e-05
5.17036e-05
5.47573e-05
5.8739e-05
6.46318e-05
7.39407e-05
9.55764e-05
0.000121171
0.000147579
3.94393e-05
1.86851e-06
2.029e-07
1.17089e-09
7.49099e-10
7.54931e-11
3.32961e-11
4.47613e-10
1.41376e-10
5.06811e-08
2.45085e-07
5.89807e-07
9.54007e-07
1.20613e-06
1.32789e-06
1.3806e-06
1.42467e-06
1.4852e-06
1.56165e-06
1.64665e-06
1.73573e-06
1.82815e-06
1.92471e-06
2.02621e-06
2.13315e-06
2.24577e-06
2.36433e-06
2.48912e-06
2.62046e-06
2.75871e-06
2.90423e-06
3.05739e-06
3.21858e-06
3.38822e-06
3.56674e-06
3.75461e-06
3.95227e-06
4.16025e-06
4.37905e-06
4.60922e-06
4.85132e-06
5.10595e-06
5.37373e-06
5.65529e-06
5.95131e-06
6.26248e-06
6.58953e-06
6.93321e-06
7.29425e-06
7.67356e-06
8.07181e-06
8.49006e-06
8.92903e-06
9.38963e-06
9.87294e-06
1.03798e-05
1.09111e-05
1.14679e-05
1.20512e-05
1.2662e-05
1.33012e-05
1.39699e-05
1.46691e-05
1.53995e-05
1.61626e-05
1.69586e-05
1.77889e-05
1.86541e-05
1.95551e-05
2.04924e-05
2.14665e-05
2.24783e-05
2.35281e-05
2.46161e-05
2.57429e-05
2.69071e-05
2.81101e-05
2.9348e-05
3.06217e-05
3.19276e-05
3.32652e-05
3.46299e-05
3.60244e-05
3.7455e-05
3.89247e-05
4.04428e-05
4.20091e-05
4.3633e-05
4.53424e-05
4.71932e-05
4.92538e-05
5.16247e-05
5.44803e-05
5.82047e-05
6.36531e-05
7.2344e-05
9.16296e-05
0.000116244
0.000147065
3.94971e-05
1.52062e-06
9.79465e-08
6.56529e-09
1.03841e-09
2.09511e-12
6.47196e-11
9.52817e-10
6.42071e-09
9.99056e-08
3.6388e-07
7.40532e-07
1.07737e-06
1.28576e-06
1.38411e-06
1.43518e-06
1.48665e-06
1.55489e-06
1.63694e-06
1.72606e-06
1.81892e-06
1.91543e-06
2.01653e-06
2.12294e-06
2.23504e-06
2.35308e-06
2.47733e-06
2.60811e-06
2.74577e-06
2.89066e-06
3.04316e-06
3.20368e-06
3.37262e-06
3.55041e-06
3.7375e-06
3.93438e-06
4.14154e-06
4.35949e-06
4.58879e-06
4.83e-06
5.08371e-06
5.35054e-06
5.63114e-06
5.92618e-06
6.23637e-06
6.56239e-06
6.90507e-06
7.26515e-06
7.64345e-06
8.04074e-06
8.45802e-06
8.8961e-06
9.35593e-06
9.83838e-06
1.03445e-05
1.08752e-05
1.14314e-05
1.20142e-05
1.26248e-05
1.32639e-05
1.39327e-05
1.46322e-05
1.53635e-05
1.61271e-05
1.69248e-05
1.77568e-05
1.86242e-05
1.95276e-05
2.04679e-05
2.1446e-05
2.24615e-05
2.35155e-05
2.46086e-05
2.57397e-05
2.69102e-05
2.81175e-05
2.9363e-05
3.06438e-05
3.19586e-05
3.3305e-05
3.46822e-05
3.60863e-05
3.75161e-05
3.89697e-05
4.04476e-05
4.19491e-05
4.34727e-05
4.50254e-05
4.6638e-05
4.83606e-05
5.02649e-05
5.24512e-05
5.50906e-05
5.8577e-05
6.36493e-05
7.19837e-05
8.91466e-05
0.00011327
0.000150025
4.03393e-05
4.60963e-07
4.12134e-08
1.53096e-08
6.44096e-10
6.01069e-11
3.38803e-11
1.20354e-09
2.3636e-08
1.78622e-07
5.16362e-07
9.13379e-07
1.21037e-06
1.36689e-06
1.43818e-06
1.48806e-06
1.54894e-06
1.62597e-06
1.71354e-06
1.80644e-06
1.903e-06
2.00372e-06
2.10952e-06
2.22094e-06
2.3383e-06
2.46184e-06
2.59189e-06
2.72877e-06
2.87286e-06
3.02451e-06
3.18414e-06
3.35215e-06
3.52898e-06
3.71506e-06
3.91089e-06
4.11696e-06
4.33378e-06
4.5619e-06
4.80188e-06
5.05432e-06
5.31985e-06
5.5991e-06