/*--------------------------------*- C++ -*----------------------------------*\
  =========                 |
  \\      /  F ield         | OpenFOAM: The Open Source CFD Toolbox
   \\    /   O peration     | Website:  https://openfoam.org
    \\  /    A nd           | Version:  9
     \\/     M anipulation  |
\*---------------------------------------------------------------------------*/
FoamFile
{
    format      ascii;
    class       volScalarField;
    location    "1500";
    object      nut;
}
// * * * * * * * * * * * * * * * * * * * * * * * * * * * * * * * * * * * * * //

dimensions      [0 2 -1 0 0 0 0];

internalField   nonuniform List<scalar> 
13446
(
9.09977e-07
9.10144e-07
7.58025e-07
9.10416e-07
1.51966e-07
1.81945e-07
8.9636e-07
9.83391e-07
9.10545e-07
3.36776e-07
3.34543e-07
4.13307e-07
1.10747e-06
9.03107e-07
9.10767e-07
2.01702e-06
7.01241e-07
2.4098e-06
1.4896e-06
9.17863e-07
8.72759e-07
9.10944e-07
1.02922e-06
1.37575e-06
1.19897e-06
5.48406e-08
9.28908e-07
8.807e-07
8.49542e-07
8.28933e-07
8.18563e-07
8.16527e-07
8.18162e-07
8.19704e-07
8.20291e-07
8.20469e-07
8.20669e-07
8.20963e-07
8.21303e-07
8.2166e-07
8.22033e-07
8.22425e-07
8.22838e-07
8.23275e-07
8.23734e-07
8.24219e-07
8.24728e-07
8.25265e-07
8.25829e-07
8.26423e-07
8.27047e-07
8.27699e-07
9.11119e-07
6.53888e-08
2.22849e-07
9.4379e-09
1.2086e-06
9.37955e-07
8.88013e-07
8.55012e-07
8.32419e-07
8.20078e-07
8.16723e-07
8.18039e-07
8.19782e-07
8.20544e-07
8.20751e-07
8.20922e-07
8.21193e-07
8.21522e-07
8.21871e-07
8.22235e-07
8.22618e-07
8.23021e-07
8.23447e-07
8.23895e-07
8.24367e-07
8.24865e-07
8.25388e-07
8.25939e-07
8.26518e-07
8.27127e-07
8.27769e-07
8.28434e-07
8.29134e-07
8.92929e-07
8.95016e-07
8.97118e-07
8.99084e-07
9.00631e-07
9.01464e-07
9.01298e-07
9.00138e-07
8.9821e-07
8.95792e-07
8.92997e-07
8.89885e-07
8.86454e-07
8.82763e-07
8.79276e-07
8.76985e-07
8.77136e-07
8.8017e-07
8.8616e-07
8.93735e-07
9.04303e-07
9.1524e-07
9.34954e-07
9.55378e-07
1.07641e-06
2.69197e-07
9.11299e-07
4.09089e-07
3.13386e-07
2.57093e-07
1.47775e-07
9.48508e-07
8.94553e-07
8.60637e-07
8.36379e-07
8.22016e-07
8.17104e-07
8.17888e-07
8.19783e-07
8.20759e-07
8.21025e-07
8.21171e-07
8.21414e-07
8.21729e-07
8.22071e-07
8.22427e-07
8.22799e-07
8.23192e-07
8.23606e-07
8.24043e-07
8.24504e-07
8.24988e-07
8.25498e-07
8.26035e-07
8.26599e-07
8.27193e-07
8.27817e-07
8.28474e-07
8.29167e-07
8.2988e-07
8.89994e-07
8.92077e-07
8.94191e-07
8.96293e-07
8.98239e-07
8.99764e-07
9.00521e-07
9.00212e-07
8.99047e-07
8.97263e-07
8.9501e-07
8.92371e-07
8.89423e-07
8.86191e-07
8.82702e-07
8.79287e-07
8.76795e-07
8.76484e-07
8.79012e-07
8.84734e-07
8.92325e-07
9.03368e-07
9.14707e-07
9.3613e-07
9.56967e-07
1.08939e-06
2.69577e-07
9.11367e-07
3.42166e-07
1.97352e-07
1.74091e-07
1.31884e-06
9.55005e-07
9.00885e-07
8.66334e-07
8.4073e-07
8.24432e-07
8.1777e-07
8.17766e-07
8.19716e-07
8.20936e-07
8.21301e-07
8.21433e-07
8.21642e-07
8.2194e-07
8.22273e-07
8.22621e-07
8.22983e-07
8.23365e-07
8.23769e-07
8.24194e-07
8.24642e-07
8.25114e-07
8.2561e-07
8.26132e-07
8.26682e-07
8.2726e-07
8.27868e-07
8.28507e-07
8.29178e-07
8.29887e-07
8.30622e-07
8.31393e-07
8.87044e-07
8.89122e-07
8.91224e-07
8.93336e-07
8.9542e-07
8.97353e-07
8.98827e-07
8.9941e-07
8.99068e-07
8.97968e-07
8.96322e-07
8.94199e-07
8.91696e-07
8.88903e-07
8.85862e-07
8.82587e-07
8.79285e-07
8.76644e-07
8.75898e-07
8.77889e-07
8.83263e-07
8.90794e-07
9.02305e-07
9.1405e-07
9.37464e-07
9.59021e-07
1.10518e-06
2.71297e-07
9.1149e-07
2.3067e-06
1.28776e-06
6.2045e-07
2.6552e-06
1.01372e-06
9.06742e-07
8.71792e-07
8.45459e-07
8.27411e-07
8.18826e-07
8.17725e-07
8.19573e-07
8.21054e-07
8.21568e-07
8.21703e-07
8.21877e-07
8.22152e-07
8.22475e-07
8.22814e-07
8.23167e-07
8.23538e-07
8.2393e-07
8.24343e-07
8.24778e-07
8.25237e-07
8.25719e-07
8.26227e-07
8.26762e-07
8.27324e-07
8.27915e-07
8.28537e-07
8.29192e-07
8.29879e-07
8.30601e-07
8.31362e-07
8.32146e-07
8.71934e-07
8.73888e-07
8.75886e-07
8.77914e-07
8.79959e-07
8.82014e-07
8.8408e-07
8.86156e-07
8.88246e-07
8.90342e-07
8.92444e-07
8.94516e-07
8.96433e-07
8.97751e-07
8.98244e-07
8.97917e-07
8.96915e-07
8.95366e-07
8.93348e-07
8.90971e-07
8.88337e-07
8.8549e-07
8.82424e-07
8.79251e-07
8.76515e-07
8.75382e-07
8.7683e-07
8.81788e-07
8.89154e-07
9.01127e-07
9.13232e-07
9.38946e-07
9.61677e-07
1.12137e-06
2.74222e-07
9.1167e-07
1.07514e-06
1.21203e-07
5.53021e-07
9.55697e-09
1.60612e-06
9.26901e-07
8.79382e-07
8.5138e-07
8.31133e-07
8.20287e-07
8.17783e-07
8.19362e-07
8.21101e-07
8.21816e-07
8.21981e-07
8.2212e-07
8.22366e-07
8.22676e-07
8.23007e-07
8.2335e-07
8.23711e-07
8.24091e-07
8.24492e-07
8.24914e-07
8.25359e-07
8.25828e-07
8.26321e-07
8.2684e-07
8.27386e-07
8.27961e-07
8.28566e-07
8.29201e-07
8.2987e-07
8.30573e-07
8.31309e-07
8.32085e-07
8.32891e-07
8.33732e-07
8.69185e-07
8.71109e-07
8.73077e-07
8.75073e-07
8.77086e-07
8.79113e-07
8.81152e-07
8.83204e-07
8.85266e-07
8.87341e-07
8.89425e-07
8.91518e-07
8.93581e-07
8.95414e-07
8.96612e-07
8.97058e-07
8.96774e-07
8.95831e-07
8.94357e-07
8.92443e-07
8.90192e-07
8.87716e-07
8.85061e-07
8.82198e-07
8.79168e-07
8.76389e-07
8.74931e-07
8.75847e-07
8.80342e-07
8.87444e-07
8.9984e-07
9.12231e-07
9.40564e-07
9.64804e-07
1.13623e-06
2.79802e-07
9.11744e-07
7.99938e-07
1.30371e-07
1.28649e-08
1.81636e-09
2.32331e-07
1.10759e-06
9.12325e-07
8.61962e-07
8.35596e-07
8.21651e-07
8.17743e-07
8.19109e-07
8.21118e-07
8.22049e-07
8.22262e-07
8.22369e-07
8.22584e-07
8.22878e-07
8.232e-07
8.23534e-07
8.23883e-07
8.24251e-07
8.2464e-07
8.25049e-07
8.2548e-07
8.25935e-07
8.26413e-07
8.26916e-07
8.27446e-07
8.28004e-07
8.28591e-07
8.29209e-07
8.29858e-07
8.30541e-07
8.31258e-07
8.32009e-07
8.32799e-07
8.33628e-07
8.34488e-07
8.35384e-07
8.57616e-07
8.5931e-07
8.61031e-07
8.62797e-07
8.64613e-07
8.66473e-07
8.68368e-07
8.70297e-07
8.72251e-07
8.74223e-07
8.76214e-07
8.78223e-07
8.80246e-07
8.82285e-07
8.84336e-07
8.864e-07
8.88472e-07
8.90555e-07
8.92588e-07
8.94339e-07
8.95483e-07
8.95876e-07
8.95597e-07
8.94722e-07
8.93308e-07
8.91476e-07
8.89358e-07
8.87047e-07
8.84568e-07
8.81889e-07
8.79004e-07
8.76228e-07
8.74527e-07
8.74958e-07
8.78965e-07
8.85699e-07
8.98477e-07
9.11054e-07
9.42288e-07
9.68876e-07
1.14748e-06
2.85112e-07
9.11874e-07
7.0731e-07
8.82975e-08
1.24108e-09
3.47287e-10
1.09183e-08
1.45079e-06
1.04803e-06
8.83154e-07
8.39518e-07
8.21584e-07
8.17169e-07
8.1891e-07
8.21238e-07
8.22301e-07
8.22533e-07
8.22617e-07
8.22805e-07
8.23082e-07
8.23393e-07
8.23717e-07
8.24056e-07
8.24412e-07
8.24787e-07
8.25183e-07
8.25601e-07
8.2604e-07
8.26503e-07
8.26991e-07
8.27505e-07
8.28046e-07
8.28615e-07
8.29214e-07
8.29844e-07
8.30506e-07
8.31201e-07
8.31932e-07
8.32698e-07
8.33501e-07
8.34343e-07
8.35226e-07
8.36141e-07
8.37099e-07
8.38102e-07
8.39144e-07
8.56949e-07
8.58607e-07
8.60306e-07
8.62058e-07
8.63856e-07
8.65694e-07
8.67565e-07
8.69466e-07
8.71393e-07
8.73343e-07
8.75316e-07
8.77306e-07
8.79313e-07
8.81336e-07
8.83372e-07
8.85423e-07
8.87484e-07
8.89554e-07
8.91546e-07
8.93207e-07
8.9427e-07
8.94678e-07
8.94423e-07
8.93549e-07
8.92165e-07
8.90438e-07
8.88477e-07
8.86328e-07
8.84002e-07
8.81478e-07
8.78746e-07
8.76031e-07
8.74168e-07
8.74174e-07
8.77686e-07
8.83983e-07
8.97109e-07
9.0968e-07
9.44088e-07
9.7409e-07
1.15444e-06
2.86504e-07
9.11965e-07
6.72509e-07
7.37201e-08
2.30101e-10
9.04483e-11
3.39598e-10
4.15582e-06
1.21518e-06
9.04431e-07
8.39613e-07
8.19479e-07
8.16267e-07
8.18991e-07
8.21569e-07
8.22592e-07
8.22786e-07
8.22854e-07
8.23026e-07
8.23288e-07
8.23587e-07
8.23901e-07
8.24227e-07
8.24571e-07
8.24934e-07
8.25316e-07
8.2572e-07
8.26145e-07
8.26593e-07
8.27065e-07
8.27562e-07
8.28085e-07
8.28637e-07
8.29217e-07
8.29827e-07
8.30468e-07
8.31142e-07
8.31851e-07
8.32594e-07
8.33373e-07
8.3419e-07
8.35045e-07
8.35941e-07
8.36877e-07
8.37855e-07
8.38876e-07
8.39934e-07
8.4103e-07
8.56249e-07
8.57878e-07
8.59562e-07
8.61295e-07
8.63069e-07
8.6488e-07
8.66725e-07
8.68601e-07
8.70506e-07
8.72435e-07
8.74386e-07
8.76357e-07
8.78346e-07
8.80352e-07
8.82373e-07
8.84409e-07
8.86458e-07
8.88506e-07
8.90452e-07
8.92029e-07
8.93061e-07
8.93441e-07
8.93155e-07
8.92273e-07
8.90957e-07
8.89364e-07
8.8755e-07
8.85536e-07
8.8334e-07
8.80958e-07
8.78387e-07
8.75785e-07
8.73845e-07
8.73496e-07
8.76536e-07
8.82316e-07
8.95781e-07
9.08159e-07
9.46022e-07
9.80443e-07
1.15896e-06
2.86583e-07
9.12148e-07
8.56391e-06
1.58289e-09
1.8622e-10
3.09749e-10
1.42803e-08
5.26537e-06
9.35393e-07
8.48595e-07
8.30434e-07
8.21253e-07
8.18467e-07
8.19617e-07
8.21568e-07
8.227e-07
8.23038e-07
8.23119e-07
8.23256e-07
8.23492e-07
8.23779e-07
8.24083e-07
8.24399e-07
8.24729e-07
8.25079e-07
8.25448e-07
8.25837e-07
8.26248e-07
8.2668e-07
8.27136e-07
8.27617e-07
8.28123e-07
8.28656e-07
8.29217e-07
8.29807e-07
8.30427e-07
8.3108e-07
8.31765e-07
8.32485e-07
8.33241e-07
8.34033e-07
8.34863e-07
8.35731e-07
8.3664e-07
8.37589e-07
8.3858e-07
8.39614e-07
8.40694e-07
8.41811e-07
8.42973e-07
8.44182e-07
8.4544e-07
8.46743e-07
8.48092e-07
8.49487e-07
8.50928e-07
8.52414e-07
8.53946e-07
8.55522e-07
8.57145e-07
8.58811e-07
8.60518e-07
8.62263e-07
8.64045e-07
8.65862e-07
8.67712e-07
8.69592e-07
8.71497e-07
8.73427e-07
8.75377e-07
8.77347e-07
8.79334e-07
8.81338e-07
8.83357e-07
8.85392e-07
8.87415e-07
8.89313e-07
8.90829e-07
8.91799e-07
8.92124e-07
8.9179e-07
8.90921e-07
8.89716e-07
8.88256e-07
8.86564e-07
8.84663e-07
8.82574e-07
8.8032e-07
8.77918e-07
8.75474e-07
8.73543e-07
8.72916e-07
8.75513e-07
8.80737e-07
8.94552e-07
9.06558e-07
9.48124e-07
9.88237e-07
1.16338e-06
2.81683e-07
9.12254e-07
7.43143e-07
1.14425e-07
2.12971e-09
8.96712e-10
1.32382e-08
1.61133e-07
4.23622e-07
6.80762e-07
8.19876e-07
8.48442e-07
8.33767e-07
8.20713e-07
8.18941e-07
8.21649e-07
8.23329e-07
8.23588e-07
8.23548e-07
8.23687e-07
8.23959e-07
8.24262e-07
8.24569e-07
8.24887e-07
8.25223e-07
8.25578e-07
8.25953e-07
8.26349e-07
8.26766e-07
8.27206e-07
8.27669e-07
8.28158e-07
8.28672e-07
8.29213e-07
8.29783e-07
8.30383e-07
8.31013e-07
8.31676e-07
8.32372e-07
8.33103e-07
8.3387e-07
8.34674e-07
8.35516e-07
8.36397e-07
8.37318e-07
8.38281e-07
8.39286e-07
8.40333e-07
8.41424e-07
8.42561e-07
8.43741e-07
8.44967e-07
8.46238e-07
8.47555e-07
8.48917e-07
8.50325e-07
8.51779e-07
8.53278e-07
8.54823e-07
8.56411e-07
8.58042e-07
8.59715e-07
8.61429e-07
8.63182e-07
8.64971e-07
8.66794e-07
8.68647e-07
8.70528e-07
8.72433e-07
8.74362e-07
8.76311e-07
8.78278e-07
8.80264e-07
8.82267e-07
8.84285e-07
8.86281e-07
8.88103e-07
8.89561e-07
8.90466e-07
8.90708e-07
8.90331e-07
8.89541e-07
8.88441e-07
8.87082e-07
8.85494e-07
8.83692e-07
8.81704e-07
8.79575e-07
8.77353e-07
8.75099e-07
8.73238e-07
8.72414e-07
8.74614e-07
8.79269e-07
8.93449e-07
9.04913e-07
9.50706e-07
9.9676e-07
1.17069e-06
2.74092e-07
9.12363e-07
1.09526e-06
1.45644e-07
1.70115e-07
4.06944e-09
5.7899e-09
2.97621e-08
1.71785e-07
4.94815e-07
8.56022e-07
9.52217e-07
8.80654e-07
8.22242e-07
8.0975e-07
8.17347e-07
8.23469e-07
8.24565e-07
8.24057e-07
8.23885e-07
8.24109e-07
8.24429e-07
8.24738e-07
8.25043e-07
8.25364e-07
8.25705e-07
8.26066e-07
8.26447e-07
8.26849e-07
8.27273e-07
8.27719e-07
8.28189e-07
8.28685e-07
8.29207e-07
8.29756e-07
8.30334e-07
8.30943e-07
8.31582e-07
8.32255e-07
8.32961e-07
8.33702e-07
8.3448e-07
8.35295e-07
8.36148e-07
8.3704e-07
8.37973e-07
8.38948e-07
8.39965e-07
8.41025e-07
8.42129e-07
8.43277e-07
8.44469e-07
8.45707e-07
8.46991e-07
8.4832e-07
8.49695e-07
8.51115e-07
8.52581e-07
8.54092e-07
8.55647e-07
8.57246e-07
8.58888e-07
8.60571e-07
8.62294e-07
8.64053e-07
8.65846e-07
8.67672e-07
8.69526e-07
8.71407e-07
8.73311e-07
8.75239e-07
8.77186e-07
8.79152e-07
8.81137e-07
8.83135e-07
8.85088e-07
8.86858e-07
8.88238e-07
8.89033e-07
8.89183e-07
8.88846e-07
8.8813e-07
8.87109e-07
8.85834e-07
8.84332e-07
8.82615e-07
8.80727e-07
8.78733e-07
8.76693e-07
8.74639e-07
8.72888e-07
8.71952e-07
8.73821e-07
8.77936e-07
8.92484e-07
9.03317e-07
9.54106e-07
1.00583e-06
1.18112e-06
2.62044e-07
9.12325e-07
9.8821e-07
1.77791e-06
9.51134e-09
2.63911e-09
1.03424e-09
8.37699e-09
8.22726e-08
3.81721e-07
1.03794e-06
1.23632e-06
9.83574e-07
8.28604e-07
7.93704e-07
8.07903e-07
8.22385e-07
8.25957e-07
8.24963e-07
8.24179e-07
8.24234e-07
8.24571e-07
8.24898e-07
8.25198e-07
8.25504e-07
8.2583e-07
8.26176e-07
8.26542e-07
8.26928e-07
8.27335e-07
8.27764e-07
8.28217e-07
8.28693e-07
8.29195e-07
8.29724e-07
8.30281e-07
8.30867e-07
8.31483e-07
8.32131e-07
8.32812e-07
8.33528e-07
8.34279e-07
8.35066e-07
8.35891e-07
8.36755e-07
8.37658e-07
8.38602e-07
8.39588e-07
8.40616e-07
8.41688e-07
8.42803e-07
8.43962e-07
8.45167e-07
8.46416e-07
8.47711e-07
8.49051e-07
8.50437e-07
8.51868e-07
8.53345e-07
8.54866e-07
8.5643e-07
8.58039e-07
8.59689e-07
8.61378e-07
8.63108e-07
8.6487e-07
8.66667e-07
8.68493e-07
8.70347e-07
8.72227e-07
8.74129e-07
8.76053e-07
8.77998e-07
8.79963e-07
8.81936e-07
8.83849e-07
8.85552e-07
8.86823e-07
8.87485e-07
8.8763e-07
8.87325e-07
8.86655e-07
8.85697e-07
8.84492e-07
8.83061e-07
8.81428e-07
8.79649e-07
8.77799e-07
8.75936e-07
8.7408e-07
8.72474e-07
8.71513e-07
8.73122e-07
8.76766e-07
8.91634e-07
9.01803e-07
9.58916e-07
1.01505e-06
1.19146e-06
2.48807e-07
9.12427e-07
2.17505e-07
5.61496e-07
2.94841e-08
7.73535e-11
2.59287e-10
2.53254e-09
4.64198e-08
3.3375e-07
1.55123e-06
1.85125e-06
1.15135e-06
8.58363e-07
7.85935e-07
7.96633e-07
8.17757e-07
8.26002e-07
8.25992e-07
8.24771e-07
8.24451e-07
8.24697e-07
8.25037e-07
8.25344e-07
8.25641e-07
8.25951e-07
8.26282e-07
8.26633e-07
8.27003e-07
8.27393e-07
8.27804e-07
8.28238e-07
8.28696e-07
8.29178e-07
8.29686e-07
8.30221e-07
8.30784e-07
8.31377e-07
8.32001e-07
8.32657e-07
8.33346e-07
8.3407e-07
8.3483e-07
8.35626e-07
8.3646e-07
8.37333e-07
8.38246e-07
8.392e-07
8.40196e-07
8.41234e-07
8.42316e-07
8.43441e-07
8.44611e-07
8.45826e-07
8.47085e-07
8.4839e-07
8.4974e-07
8.51135e-07
8.52575e-07
8.54061e-07
8.5559e-07
8.57163e-07
8.58778e-07
8.60435e-07
8.62131e-07
8.63862e-07
8.65628e-07
8.67424e-07
8.6925e-07
8.71102e-07
8.72979e-07
8.74879e-07
8.76801e-07
8.78744e-07
8.80686e-07
8.82555e-07
8.84166e-07
8.8529e-07
8.85907e-07
8.86035e-07
8.85738e-07
8.85107e-07
8.84202e-07
8.83051e-07
8.81679e-07
8.80138e-07
8.78486e-07
8.76785e-07
8.75081e-07
8.73406e-07
8.71962e-07
8.71062e-07
8.7249e-07
8.75808e-07
8.90849e-07
9.00542e-07
9.65417e-07
1.02433e-06
1.19444e-06
2.34328e-07
9.12122e-07
4.3382e-07
6.80733e-06
1.7516e-09
2.81373e-10
5.74918e-11
5.36269e-10
2.77211e-08
3.1014e-07
2.27955e-06
2.30419e-06
1.31678e-06
9.55134e-07
8.27275e-07
7.99192e-07
8.08275e-07
8.20499e-07
8.25478e-07
8.2569e-07
8.25035e-07
8.249e-07
8.25147e-07
8.25467e-07
8.25769e-07
8.26067e-07
8.26382e-07
8.26716e-07
8.2707e-07
8.27444e-07
8.27838e-07
8.28253e-07
8.28691e-07
8.29153e-07
8.2964e-07
8.30153e-07
8.30694e-07
8.31263e-07
8.31862e-07
8.32493e-07
8.33156e-07
8.33852e-07
8.34584e-07
8.35351e-07
8.36155e-07
8.36997e-07
8.37879e-07
8.38801e-07
8.39763e-07
8.40768e-07
8.41815e-07
8.42906e-07
8.4404e-07
8.45218e-07
8.46441e-07
8.4771e-07
8.49023e-07
8.50381e-07
8.51784e-07
8.53233e-07
8.54725e-07
8.56261e-07
8.5784e-07
8.59461e-07
8.61122e-07
8.6282e-07
8.64554e-07
8.66319e-07
8.68115e-07
8.69939e-07
8.71788e-07
8.73662e-07
8.7556e-07
8.77477e-07
8.79385e-07
8.81196e-07
8.82674e-07
8.83719e-07
8.84274e-07
8.84366e-07
8.84071e-07
8.83467e-07
8.82592e-07
8.81482e-07
8.80183e-07
8.78753e-07
8.77232e-07
8.75665e-07
8.74104e-07
8.726e-07
8.71341e-07
8.70583e-07
8.7191e-07
8.75097e-07
8.89993e-07
8.99876e-07
9.72944e-07
1.03427e-06
9.40647e-07
2.16394e-07
9.13369e-07
1.58419e-06
4.65836e-06
5.31499e-11
9.3269e-13
1.04594e-11
8.70159e-10
1.68515e-08
2.78635e-07
1.43514e-06
1.53923e-06
1.38754e-06
1.2009e-06
9.85613e-07
8.44606e-07
7.99373e-07
8.05859e-07
8.20199e-07
8.26092e-07
8.26188e-07
8.25405e-07
8.25281e-07
8.25551e-07
8.25874e-07
8.26174e-07
8.26475e-07
8.26792e-07
8.27129e-07
8.27485e-07
8.27862e-07
8.28258e-07
8.28677e-07
8.29119e-07
8.29585e-07
8.30076e-07
8.30594e-07
8.31139e-07
8.31714e-07
8.32319e-07
8.32955e-07
8.33624e-07
8.34327e-07
8.35065e-07
8.35839e-07
8.3665e-07
8.375e-07
8.38389e-07
8.39317e-07
8.40288e-07
8.413e-07
8.42354e-07
8.43452e-07
8.44594e-07
8.4578e-07
8.4701e-07
8.48285e-07
8.49605e-07
8.5097e-07
8.5238e-07
8.53834e-07
8.55332e-07
8.56873e-07
8.58456e-07
8.60081e-07
8.61743e-07
8.63442e-07
8.65175e-07
8.6694e-07
8.68733e-07
8.70553e-07
8.72399e-07
8.74269e-07
8.76157e-07
8.78025e-07
8.79753e-07
8.81129e-07
8.82072e-07
8.82551e-07
8.82606e-07
8.82305e-07
8.81708e-07
8.80847e-07
8.79791e-07
8.78589e-07
8.7728e-07
8.75882e-07
8.74434e-07
8.72999e-07
8.71663e-07
8.70606e-07
8.70059e-07
8.71361e-07
8.74652e-07
8.88952e-07
9.00359e-07
9.79574e-07
1.04453e-06
6.38174e-07
1.88776e-07
9.25984e-07
1.06925e-06
6.23562e-07
1.30639e-10
1.56001e-10
2.79128e-11
1.17302e-10
1.46139e-08
2.7247e-07
6.67267e-07
1.00979e-06
1.55304e-06
1.75748e-06
1.34034e-06
9.59166e-07
8.05302e-07
7.86088e-07
8.08142e-07
8.2403e-07
8.27485e-07
8.26402e-07
8.25588e-07
8.2562e-07
8.25943e-07
8.26264e-07
8.26559e-07
8.26859e-07
8.27179e-07
8.27518e-07
8.27876e-07
8.28255e-07
8.28654e-07
8.29076e-07
8.29521e-07
8.2999e-07
8.30485e-07
8.31006e-07
8.31556e-07
8.32135e-07
8.32745e-07
8.33386e-07
8.3406e-07
8.34768e-07
8.35512e-07
8.36292e-07
8.37109e-07
8.37964e-07
8.38859e-07
8.39794e-07
8.4077e-07
8.41788e-07
8.42848e-07
8.43952e-07
8.45099e-07
8.46291e-07
8.47527e-07
8.48807e-07
8.50132e-07
8.51502e-07
8.52916e-07
8.54375e-07
8.55876e-07
8.57421e-07
8.59006e-07
8.60631e-07
8.62293e-07
8.6399e-07
8.6572e-07
8.67481e-07
8.6927e-07
8.71085e-07
8.72927e-07
8.74781e-07
8.76593e-07
8.782e-07
8.79473e-07
8.80317e-07
8.80716e-07
8.80726e-07
8.80403e-07
8.79794e-07
8.78976e-07
8.78001e-07
8.76899e-07
8.75697e-07
8.74409e-07
8.73078e-07
8.71778e-07
8.70614e-07
8.69768e-07
8.69472e-07
8.70819e-07
8.74421e-07
8.87688e-07
9.02372e-07
9.82026e-07
1.05342e-06
4.25349e-07
1.5732e-07
9.536e-07
5.97985e-07
1.13342e-08
1.72763e-09
2.27618e-10
2.09122e-11
1.83869e-09
1.08228e-07
5.64615e-07
6.45642e-07
1.2901e-06
2.57412e-06
2.95855e-06
1.86632e-06
1.12428e-06
8.36328e-07
7.73407e-07
7.92952e-07
8.18443e-07
8.27854e-07
8.27692e-07
8.26174e-07
8.25743e-07
8.25983e-07
8.2633e-07
8.26634e-07
8.26921e-07
8.27222e-07
8.27544e-07
8.27885e-07
8.28245e-07
8.28625e-07
8.29026e-07
8.2945e-07
8.29898e-07
8.3037e-07
8.30868e-07
8.31392e-07
8.31946e-07
8.32528e-07
8.33142e-07
8.33787e-07
8.34465e-07
8.35178e-07
8.35925e-07
8.36709e-07
8.37531e-07
8.3839e-07
8.3929e-07
8.40229e-07
8.41209e-07
8.42231e-07
8.43296e-07
8.44404e-07
8.45554e-07
8.46749e-07
8.47988e-07
8.49272e-07
8.50599e-07
8.51972e-07
8.53388e-07
8.54847e-07
8.5635e-07
8.57894e-07
8.59478e-07
8.61101e-07
8.6276e-07
8.64453e-07
8.66177e-07
8.67932e-07
8.69714e-07
8.71521e-07
8.73329e-07
8.75054e-07
8.76558e-07
8.77705e-07
8.78426e-07
8.78732e-07
8.78687e-07
8.78332e-07
8.77749e-07
8.76999e-07
8.76112e-07
8.75107e-07
8.74005e-07
8.72826e-07
8.71618e-07
8.70458e-07
8.69461e-07
8.68818e-07
8.68789e-07
8.70263e-07
8.74277e-07
8.86388e-07
9.05321e-07
9.78794e-07
9.94201e-07
3.1522e-07
1.37102e-07
8.06285e-07
2.25904e-08
5.06079e-10
1.11303e-10
2.75693e-11
6.86162e-11
5.41372e-08
1.36415e-06
2.30864e-06
7.03968e-06
1.0654e-05
8.4608e-06
4.49981e-06
2.2254e-06
1.25209e-06
8.77335e-07
7.74333e-07
7.82822e-07
8.12312e-07
8.27066e-07
8.2865e-07
8.2683e-07
8.25937e-07
8.26033e-07
8.26388e-07
8.26704e-07
8.26981e-07
8.27264e-07
8.27567e-07
8.27891e-07
8.28232e-07
8.28594e-07
8.28975e-07
8.29378e-07
8.29803e-07
8.30252e-07
8.30726e-07
8.31226e-07
8.31753e-07
8.32308e-07
8.32894e-07
8.3351e-07
8.34157e-07
8.34838e-07
8.35553e-07
8.36304e-07
8.3709e-07
8.37914e-07
8.38776e-07
8.39677e-07
8.40619e-07
8.41601e-07
8.42625e-07
8.43691e-07
8.44799e-07
8.45952e-07
8.47147e-07
8.48386e-07
8.49669e-07
8.50996e-07
8.52367e-07
8.53781e-07
8.55239e-07
8.56738e-07
8.58278e-07
8.59858e-07
8.61474e-07
8.63127e-07
8.64811e-07
8.66527e-07
8.68273e-07
8.70038e-07
8.71785e-07
8.73409e-07
8.7477e-07
8.75767e-07
8.7636e-07
8.76582e-07
8.76494e-07
8.76159e-07
8.75631e-07
8.7495e-07
8.74143e-07
8.73225e-07
8.72223e-07
8.7116e-07
8.70082e-07
8.69063e-07
8.68225e-07
8.6777e-07
8.67997e-07
8.69668e-07
8.74097e-07
8.85391e-07
9.07656e-07
9.73203e-07
8.95983e-07
2.86889e-07
1.42807e-07
4.32896e-07
8.53206e-10
2.73458e-12
8.28005e-13
1.82307e-12
5.25442e-10
2.27912e-08
1.11996e-07
2.63415e-06
1.65729e-06
2.11705e-06
3.16428e-06
3.2461e-06
2.10019e-06
1.26344e-06
8.92517e-07
7.8016e-07
7.82674e-07
8.11112e-07
8.26732e-07
8.28875e-07
8.27082e-07
8.26079e-07
8.26118e-07
8.2646e-07
8.26768e-07
8.27032e-07
8.27298e-07
8.27583e-07
8.27889e-07
8.28212e-07
8.28553e-07
8.28914e-07
8.29296e-07
8.29699e-07
8.30124e-07
8.30574e-07
8.31048e-07
8.31548e-07
8.32076e-07
8.32632e-07
8.33218e-07
8.33834e-07
8.34482e-07
8.35164e-07
8.35879e-07
8.36629e-07
8.37416e-07
8.38239e-07
8.39101e-07
8.40001e-07
8.40942e-07
8.41923e-07
8.42946e-07
8.4401e-07
8.45116e-07
8.46265e-07
8.47457e-07
8.48692e-07
8.4997e-07
8.51293e-07
8.52658e-07
8.54067e-07
8.55518e-07
8.57009e-07
8.58541e-07
8.60112e-07
8.61718e-07
8.6336e-07
8.65033e-07
8.66737e-07
8.68454e-07
8.70126e-07
8.71636e-07
8.7286e-07
8.73724e-07
8.74216e-07
8.7438e-07
8.74274e-07
8.73954e-07
8.73469e-07
8.72847e-07
8.72116e-07
8.71293e-07
8.70396e-07
8.69447e-07
8.68487e-07
8.67594e-07
8.66899e-07
8.66622e-07
8.67098e-07
8.69027e-07
8.73812e-07
8.84838e-07
9.08504e-07
9.69047e-07
7.63542e-07
3.22684e-07
1.6922e-07
1.22085e-06
6.16675e-09
1.56498e-11
1.03275e-11
3.88845e-11
4.88441e-10
3.82385e-10
3.69245e-09
8.98992e-08
6.91642e-07
1.06604e-06
1.73752e-06
2.07954e-06
1.6355e-06
1.12941e-06
8.66786e-07
7.85324e-07
7.91258e-07
8.15298e-07
8.27404e-07
8.28531e-07
8.26874e-07
8.26088e-07
8.26186e-07
8.26509e-07
8.2679e-07
8.27035e-07
8.27284e-07
8.27552e-07
8.27838e-07
8.28142e-07
8.28463e-07
8.28803e-07
8.29162e-07
8.29542e-07
8.29943e-07
8.30367e-07
8.30815e-07
8.31287e-07
8.31786e-07
8.32312e-07
8.32866e-07
8.3345e-07
8.34064e-07
8.3471e-07
8.35389e-07
8.36102e-07
8.36849e-07
8.37633e-07
8.38453e-07
8.39311e-07
8.40208e-07
8.41145e-07
8.42122e-07
8.43141e-07
8.442e-07
8.453e-07
8.46442e-07
8.47627e-07
8.48854e-07
8.50125e-07
8.51439e-07
8.52796e-07
8.54196e-07
8.55637e-07
8.5712e-07
8.58642e-07
8.60201e-07
8.61798e-07
8.63429e-07
8.65089e-07
8.6675e-07
8.68337e-07
8.6973e-07
8.70825e-07
8.71576e-07
8.71989e-07
8.72115e-07
8.72006e-07
8.71716e-07
8.7128e-07
8.70729e-07
8.7008e-07
8.69349e-07
8.68552e-07
8.67707e-07
8.6686e-07
8.66089e-07
8.65535e-07
8.65434e-07
8.66147e-07
8.68356e-07
8.73449e-07
8.84552e-07
9.08097e-07
9.655e-07
7.68578e-07
3.76848e-07
2.18976e-07
9.4832e-07
1.61414e-07
2.35764e-08
1.22322e-10
7.66192e-11
1.60572e-11
3.16342e-11
1.1439e-10
1.06636e-08
1.26851e-06
4.21498e-06
5.57407e-06
2.44917e-06
1.41094e-06
1.00372e-06
8.37808e-07
7.9222e-07
8.00606e-07
8.18361e-07
8.27033e-07
8.27901e-07
8.26683e-07
8.26059e-07
8.26128e-07
8.26409e-07
8.2667e-07
8.26901e-07
8.27133e-07
8.27383e-07
8.2765e-07
8.27934e-07
8.28234e-07
8.28552e-07
8.28889e-07
8.29245e-07
8.29622e-07
8.3002e-07
8.30441e-07
8.30886e-07
8.31356e-07
8.31851e-07
8.32374e-07
8.32925e-07
8.33505e-07
8.34116e-07
8.34758e-07
8.35433e-07
8.36142e-07
8.36885e-07
8.37665e-07
8.3848e-07
8.39334e-07
8.40228e-07
8.41161e-07
8.42134e-07
8.43147e-07
8.44201e-07
8.45295e-07
8.46431e-07
8.47609e-07
8.48831e-07
8.50095e-07
8.51403e-07
8.52754e-07
8.54147e-07
8.55583e-07
8.57061e-07
8.58578e-07
8.60133e-07
8.61725e-07
8.63342e-07
8.64945e-07
8.66444e-07
8.67729e-07
8.68715e-07
8.69381e-07
8.69744e-07
8.69852e-07
8.69759e-07
8.69509e-07
8.69132e-07
8.6865e-07
8.68078e-07
8.67431e-07
8.66721e-07
8.65975e-07
8.65243e-07
8.64606e-07
8.64206e-07
8.64283e-07
8.65221e-07
8.67705e-07
8.73081e-07
8.84389e-07
9.07381e-07
9.6237e-07
7.86583e-07
4.12104e-07
2.82364e-07
9.16431e-07
7.59945e-07
2.64089e-08
9.96829e-11
3.09433e-11
8.46161e-12
8.71224e-12
6.91882e-11
7.93719e-10
2.24405e-08
7.53026e-07
6.23583e-06
1.99492e-06
1.20174e-06
9.33263e-07
8.28474e-07
8.01439e-07
8.08496e-07
8.20674e-07
8.26459e-07
8.27036e-07
8.26224e-07
8.25806e-07
8.25873e-07
8.26109e-07
8.26344e-07
8.26561e-07
8.2678e-07
8.27013e-07
8.27263e-07
8.27529e-07
8.27811e-07
8.2811e-07
8.28426e-07
8.28762e-07
8.29117e-07
8.29493e-07
8.2989e-07
8.30311e-07
8.30755e-07
8.31224e-07
8.3172e-07
8.32242e-07
8.32793e-07
8.33373e-07
8.33984e-07
8.34627e-07
8.35302e-07
8.36011e-07
8.36755e-07
8.37535e-07
8.38353e-07
8.39209e-07
8.40106e-07
8.41042e-07
8.42018e-07
8.43033e-07
8.44089e-07
8.45186e-07
8.46325e-07
8.47507e-07
8.48732e-07
8.50001e-07
8.51313e-07
8.52669e-07
8.54069e-07
8.55511e-07
8.56995e-07
8.58518e-07
8.60081e-07
8.61663e-07
8.63216e-07
8.64642e-07
8.65842e-07
8.66753e-07
8.67365e-07
8.67707e-07
8.67821e-07
8.67758e-07
8.6755e-07
8.67223e-07
8.66793e-07
8.66276e-07
8.65688e-07
8.65052e-07
8.64397e-07
8.6378e-07
8.63277e-07
8.63033e-07
8.63285e-07
8.64427e-07
8.67144e-07
8.72744e-07
8.84178e-07
9.06768e-07
9.57745e-07
8.46659e-07
4.38192e-07
3.38828e-07
9.13146e-07
2.24444e-07
6.41804e-06
4.9829e-15
2.5552e-11
2.49447e-11
7.84312e-12
2.96883e-11
2.46078e-10
7.93454e-09
1.31812e-07
1.21488e-06
2.21834e-06
1.32763e-06
9.5666e-07
8.28137e-07
7.99441e-07
8.08216e-07
8.20875e-07
8.26376e-07
8.26785e-07
8.25988e-07
8.25599e-07
8.2566e-07
8.25879e-07
8.26103e-07
8.26312e-07
8.26522e-07
8.26745e-07
8.26985e-07
8.2724e-07
8.27511e-07
8.27798e-07
8.28103e-07
8.28427e-07
8.28769e-07
8.29132e-07
8.29515e-07
8.29922e-07
8.30351e-07
8.30805e-07
8.31285e-07
8.31791e-07
8.32325e-07
8.32888e-07
8.33481e-07
8.34105e-07
8.34761e-07
8.35452e-07
8.36176e-07
8.36936e-07
8.37733e-07
8.38568e-07
8.39443e-07
8.40357e-07
8.41311e-07
8.42305e-07
8.43339e-07
8.44413e-07
8.45528e-07
8.46687e-07
8.47887e-07
8.49132e-07
8.50418e-07
8.51747e-07
8.5312e-07
8.54535e-07
8.55992e-07
8.5749e-07
8.59026e-07
8.60581e-07
8.62097e-07
8.63479e-07
8.64633e-07
8.65509e-07
8.661e-07
8.66436e-07
8.66562e-07
8.66502e-07
8.66297e-07
8.65981e-07
8.65558e-07
8.6505e-07
8.64477e-07
8.63874e-07
8.63272e-07
8.6273e-07
8.62319e-07
8.62182e-07
8.6255e-07
8.63817e-07
8.66681e-07
8.72417e-07
8.83859e-07
9.06116e-07
9.52475e-07
9.66342e-07
4.68519e-07
3.68968e-07
9.12961e-07
2.69158e-06
2.80159e-06
7.33771e-08
1.65761e-10
2.59131e-12
8.48865e-12
6.63867e-11
8.92764e-10
1.42752e-08
1.43486e-07
7.83402e-07
1.52025e-06
1.21452e-06
9.36636e-07
8.23788e-07
8.00487e-07
8.11003e-07
8.22762e-07
8.26877e-07
8.26693e-07
8.25925e-07
8.2569e-07
8.25823e-07
8.26047e-07
8.26263e-07
8.26469e-07
8.26682e-07
8.26909e-07
8.27152e-07
8.2741e-07
8.27685e-07
8.27976e-07
8.28285e-07
8.28612e-07
8.28959e-07
8.29327e-07
8.29716e-07
8.30128e-07
8.30564e-07
8.31024e-07
8.31511e-07
8.32025e-07
8.32567e-07
8.33138e-07
8.3374e-07
8.34373e-07
8.35039e-07
8.3574e-07
8.36475e-07
8.37247e-07
8.38056e-07
8.38904e-07
8.39791e-07
8.40718e-07
8.41685e-07
8.42693e-07
8.43741e-07
8.4483e-07
8.45962e-07
8.47135e-07
8.48351e-07
8.49609e-07
8.50909e-07
8.52252e-07
8.53635e-07
8.55059e-07
8.56524e-07
8.58027e-07
8.59566e-07
8.61126e-07
8.62658e-07
8.64069e-07
8.65257e-07
8.66155e-07
8.6676e-07
8.67058e-07
8.67113e-07
8.66962e-07
8.66653e-07
8.66222e-07
8.65685e-07
8.65066e-07
8.64396e-07
8.63705e-07
8.63033e-07
8.62431e-07
8.61977e-07
8.61817e-07
8.62178e-07
8.63448e-07
8.66323e-07
8.7205e-07
8.83293e-07
9.04934e-07
9.48429e-07
1.03812e-06
5.00692e-07
3.67902e-07
9.13229e-07
4.82741e-07
2.66688e-06
7.11065e-10
2.00961e-10
1.64563e-11
8.12693e-12
1.52036e-10
8.46725e-11
7.23253e-08
7.6944e-07
1.23636e-06
1.0724e-06
9.36641e-07
8.56314e-07
8.19706e-07
8.13165e-07
8.19124e-07
8.2469e-07
8.26499e-07
8.26333e-07
8.25982e-07
8.25953e-07
8.26126e-07
8.26345e-07
8.26559e-07
8.26774e-07
8.26999e-07
8.27239e-07
8.27494e-07
8.27766e-07
8.28054e-07
8.2836e-07
8.28684e-07
8.29027e-07
8.29391e-07
8.29776e-07
8.30183e-07
8.30614e-07
8.3107e-07
8.31552e-07
8.3206e-07
8.32597e-07
8.33163e-07
8.33759e-07
8.34387e-07
8.35047e-07
8.35742e-07
8.36471e-07
8.37238e-07
8.38041e-07
8.38883e-07
8.39765e-07
8.40687e-07
8.4165e-07
8.42654e-07
8.43699e-07
8.44787e-07
8.45917e-07
8.47091e-07
8.48307e-07
8.49566e-07
8.50868e-07
8.52212e-07
8.53599e-07
8.55026e-07
8.56493e-07
8.57999e-07
8.5954e-07
8.61116e-07
8.62717e-07
8.64312e-07
8.65819e-07
8.67127e-07
8.68139e-07
8.68827e-07
8.69167e-07
8.69188e-07
8.6897e-07
8.68566e-07
8.68012e-07
8.67339e-07
8.66577e-07
8.65753e-07
8.64888e-07
8.64022e-07
8.63197e-07
8.62507e-07
8.6211e-07
8.62261e-07
8.63349e-07
8.66045e-07
8.71537e-07
8.82402e-07
9.03011e-07
9.44124e-07
1.02871e-06
5.31451e-07
3.58577e-07
9.16174e-07
6.81213e-07
3.79071e-08
7.11105e-10
1.0914e-10
3.00674e-13
1.54871e-11
5.14231e-10
1.42644e-08
1.55248e-05
1.83852e-06
1.08054e-06
9.15006e-07
8.52528e-07
8.26653e-07
8.18827e-07
8.19959e-07
8.234e-07
8.25572e-07
8.26122e-07
8.2601e-07
8.25931e-07
8.26034e-07
8.26234e-07
8.26454e-07
8.26675e-07
8.26903e-07
8.27144e-07
8.27402e-07
8.27675e-07
8.27964e-07
8.28271e-07
8.28596e-07
8.2894e-07
8.29305e-07
8.2969e-07
8.30098e-07
8.3053e-07
8.30986e-07
8.31468e-07
8.31978e-07
8.32515e-07
8.33081e-07
8.33677e-07
8.34305e-07
8.34966e-07
8.3566e-07
8.3639e-07
8.37156e-07
8.3796e-07
8.38803e-07
8.39685e-07
8.40608e-07
8.41572e-07
8.42578e-07
8.43627e-07
8.44718e-07
8.45852e-07
8.4703e-07
8.48252e-07
8.49517e-07
8.50825e-07
8.52177e-07
8.53571e-07
8.55008e-07
8.56485e-07
8.58e-07
8.59553e-07
8.6114e-07
8.6276e-07
8.64408e-07
8.66067e-07
8.67676e-07
8.69124e-07
8.70294e-07
8.71126e-07
8.71566e-07
8.71645e-07
8.7142e-07
8.7097e-07
8.70354e-07
8.69602e-07
8.68747e-07
8.67809e-07
8.66808e-07
8.6577e-07
8.64739e-07
8.63805e-07
8.63134e-07
8.62979e-07
8.63731e-07
8.66072e-07
8.71116e-07
8.81447e-07
9.00657e-07
9.40101e-07
1.01566e-06
5.61616e-07
3.57632e-07
9.43592e-07
6.41951e-09
1.0059e-09
5.23989e-10
4.344e-11
9.89321e-12
2.01105e-11
5.49907e-09
6.99209e-07
7.37802e-06
1.74146e-06
1.13152e-06
9.25418e-07
8.41394e-07
8.14766e-07
8.14633e-07
8.21032e-07
8.25027e-07
8.26046e-07
8.25915e-07
8.25753e-07
8.25804e-07
8.25987e-07
8.26209e-07
8.26437e-07
8.26668e-07
8.26912e-07
8.2717e-07
8.27445e-07
8.27737e-07
8.28045e-07
8.28372e-07
8.28717e-07
8.29083e-07
8.2947e-07
8.29879e-07
8.30312e-07
8.30769e-07
8.31252e-07
8.31762e-07
8.323e-07