/*--------------------------------*- C++ -*----------------------------------*\
  =========                 |
  \\      /  F ield         | OpenFOAM: The Open Source CFD Toolbox
   \\    /   O peration     | Website:  https://openfoam.org
    \\  /    A nd           | Version:  9
     \\/     M anipulation  |
\*---------------------------------------------------------------------------*/
FoamFile
{
    format      ascii;
    class       volScalarField;
    location    "1500";
    object      omega;
}
// * * * * * * * * * * * * * * * * * * * * * * * * * * * * * * * * * * * * * //

dimensions      [0 0 -1 0 0 0 0];

internalField   nonuniform List<scalar> 
13446
(
36.0095
36.569
3.22879
37.0934
1.32462
0.122096
0.00756807
0.0630496
37.5983
3.02343
0.221553
0.0228448
0.0323765
0.4623
38.0717
0.899215
0.124647
0.00520182
0.00805672
0.368675
1.10417
38.5227
2.63656
0.161897
0.0171642
0.0257834
0.286401
0.972284
1.6962
2.15299
2.35405
2.44946
2.54571
2.67061
2.81483
2.96792
3.12718
3.29367
3.46861
3.65268
3.84629
4.04995
4.26416
4.48946
4.72644
4.97565
5.23773
5.5133
5.80304
6.10762
6.4278
6.76373
38.9468
0.451905
0.0911847
0.00735044
0.0109302
0.219361
0.841678
1.57422
2.07545
2.30897
2.41235
2.50329
2.62154
2.76164
2.91207
3.06868
3.23212
3.40372
3.58426
3.7742
3.97396
4.18409
4.40509
4.63753
4.88198
5.13907
5.4094
5.6936
5.9924
6.30642
6.63668
6.98239
7.34563
50.2949
52.3047
54.3956
56.5611
58.8096
61.164
63.6435
66.2542
68.9897
71.8287
74.7724
77.8236
80.9859
84.2725
87.6837
91.1924
94.78
98.4489
102.313
106.444
111.122
116.322
122.323
130.711
132.91
142.212
39.3472
1.77963
0.159608
0.0188631
0.015899
0.161089
0.716608
1.44477
1.98738
2.25733
2.3728
2.4598
2.57095
2.70624
2.85369
3.00756
3.16788
3.33603
3.5129
3.69898
3.89471
4.10058
4.3171
4.54484
4.78435
5.03623
5.30109
5.57956
5.87231
6.18004
6.50339
6.84337
7.20087
7.57418
47.4743
49.4108
51.4227
53.4995
55.6405
57.8624
60.1937
62.6562
65.2425
67.9415
70.7424
73.6479
76.6596
79.7825
83.0314
86.4072
89.8983
93.4907
97.1739
101.056
105.205
109.95
115.252
121.576
130.72
133.354
145.757
39.7259
3.17083
0.224266
0.0200341
0.00539427
0.114563
0.598062
1.31007
1.88945
2.19898
2.33097
2.41604
2.51993
2.64974
2.79384
2.9449
3.10209
3.26672
3.43983
3.62198
3.81357
4.0151
4.22704
4.44996
4.68441
4.93096
5.19024
5.46282
5.74939
6.05063
6.36725
6.69994
7.04938
7.41696
7.80168
8.20541
44.7287
46.5923
48.5236
50.5137
52.5604
54.6741
56.8724
59.1885
61.6259
64.1786
66.8398
69.6026
72.4703
75.4407
78.52
81.7252
85.0654
88.5327
92.1208
95.815
99.7153
103.881
108.68
114.065
120.703
130.614
134.152
150.082
40.0837
0.59377
0.0943729
0.00746319
0.00311948
0.0727533
0.488434
1.17235
1.78146
2.13258
2.28582
2.37166
2.46848
2.59208
2.73235
2.88049
3.03452
3.19558
3.36485
3.54295
3.73031
3.92738
4.13463
4.35263
4.58188
4.82297
5.07651
5.34308
5.62333
5.91793
6.22755
6.55292
6.89482
7.25394
7.63127
8.02794
8.44192
32.4788
33.9254
35.4375
37.0104
38.6397
40.3221
42.0594
43.8531
45.7049
47.6102
49.5716
51.5904
53.6775
55.8582
58.1499
60.5548
63.0719
65.6945
68.4211
71.2471
74.1781
77.2137
80.371
83.6667
87.1047
90.6806
94.3819
98.2936
102.468
107.319
112.761
119.71
130.352
135.358
155.683
40.4166
1.61735
0.162274
0.0070893
0.112216
0.0286484
0.382572
1.03062
1.66199
2.05674
2.23662
2.32658
2.41686
2.53355
2.66942
2.81445
2.96531
3.12277
3.28811
3.46208
3.6451
3.8376
4.04006
4.253
4.47695
4.71247
4.96015
5.22055
5.49434
5.78213
6.08464
6.40254
6.73656
7.08749
7.45612
7.8431
8.24996
8.67574
9.12184
30.3869
31.7649
33.2037
34.6992
36.247
37.8473
39.5007
41.2097
42.973
44.7927
46.6673
48.6002
50.5898
52.6499
54.807
57.072
59.4436
61.9258
64.5085
67.1946
69.9795
72.8655
75.8548
78.9674
82.216
85.6216
89.1754
92.869
96.7893
100.967
105.862
111.339
118.599
129.873
137.032
162.063
40.73
2.49691
0.468591
0.786306
0.647695
0.106292
0.248122
0.865603
1.5259
1.97024
2.18335
2.28095
2.3652
2.47427
2.60512
2.74681
2.89449
3.04833
3.20968
3.37941
3.55799
3.74584
3.9434
4.15119
4.36972
4.59955
4.84123
5.09534
5.36252
5.64338
5.9386
6.24885
6.57486
6.91737
7.27717
7.65507
8.0518
8.46842
8.90616
9.36393
9.84326
22.5636
23.637
24.7475
25.9053
27.1153
28.3772
29.6901
31.0552
32.4708
33.9359
35.4529
37.0239
38.6481
40.3273
42.0616
43.8513
45.6953
47.5973
49.5583
51.5928
53.7215
55.9545
58.2919
60.7347
63.281
65.9279
68.6671
71.5049
74.4458
77.5108
80.7108
84.0721
87.5978
91.2786
95.2005
99.3733
104.311
109.806
117.374
129.125
139.087
169.707
41.024
3.38251
1.60122
15.7328
7.36376
0.782221
0.140643
0.643307
1.36677
1.87405
2.12721
2.23518
2.3135
2.41427
2.53955
2.67769
2.82214
2.97234
3.12964
3.29506
3.46911
3.65221
3.84478
4.04732
4.26032
4.48433
4.71992
4.96762
5.22806
5.50184
5.78962
6.09208
6.4099
6.74383
7.09463
7.46306
7.84999
8.25621
8.68251
9.13005
9.60012
10.0915
10.607
11.1483
11.7144
22.0137
23.0597
24.1482
25.2863
26.4749
27.7123
28.998
30.3327
31.7173
33.1525
34.6404
36.1812
37.7752
39.4232
41.1254
42.8838
44.6956
46.5652
48.4953
50.5018
52.6007
54.7988
57.1008
59.5055
62.0129
64.6145
67.3077
70.0974
72.9906
76.0019
79.1521
82.4652
85.9514
89.6117
93.5259
97.6972
102.669
108.151
116.049
128.081
141.347
179.687
41.2987
4.2033
3.21214
50.3295
17.2484
1.28089
0.034595
0.461019
1.20435
1.7727
2.06761
2.18792
2.26129
2.35365
2.47291
2.6072
2.74832
2.89486
3.04807
3.2091
3.37854
3.5568
3.74429
3.94148
4.14886
4.36696
4.59632
4.83749
5.09107
5.35766
5.63786
5.93238
6.24187
6.56706
6.90868
7.26751
7.64434
8.03998
8.45535
8.89129
9.34861
9.82857
10.3321
10.8599
11.4135
11.9919
12.5963
21.4459
22.4673
23.5362
24.6529
25.8164
27.0263
28.2833
29.5891
30.9444
32.35
33.8075
35.3166
36.8785
38.4944
40.1645
41.889
43.6686
45.5047
47.4018
49.3782
51.4432
53.6063
55.8712
58.2382
60.7038
63.2576
65.9003
68.6404
71.4828
74.4446
77.5403
80.7998
84.2377
87.8642
91.7679
95.9212
100.933
106.38
114.647
126.735
143.582
190.099
41.5525
0.41927
0.899661
6.33395
3.04324
0.464766
0.0184833
0.479265
1.13276
1.67736
1.99224
2.13115
2.20761
2.29367
2.40591
2.53544
2.67304
2.81596
2.96508
3.12165
3.2864
3.45974
3.64206
3.83381
4.03548
4.24757
4.47061
4.70513
4.95174
5.21098
5.48349
5.76994
6.07095
6.38725
6.71954
7.06859
7.43517
7.82008
8.22418
8.64834
9.09344
9.5604
10.0502
10.5638
11.1021
11.6665
12.2584
12.8765
13.5236
14.2017
14.9119
15.6548
16.4315
17.2431
18.0909
18.976
19.8999
20.8637
21.8698
22.9185
24.0102
25.1458
26.327
27.5547
28.8307
30.1555
31.5301
32.9556
34.4325
35.9618
37.5439
39.1794
40.8694
42.6143
44.4153
46.2801
48.2223
50.2522
52.3792
54.6074
56.9336
59.35
61.8547
64.4475
67.1369
69.9266
72.8339
75.8732
79.0703
82.456
86.0386
89.9222
94.0514
99.1024
104.486
113.174
125.173
145.362
202.455
41.7856
0.714895
0.156538
0.91289
0.509377
0.127484
0.381827
0.812416
1.21951
1.58311
1.86644
2.04576
2.15152
2.23841
2.34066
2.46256
2.59603
2.73559
2.88077
3.03285
3.1928
3.36113
3.53821
3.72444
3.92031
4.1263
4.34292
4.57071
4.81022
5.06203
5.32673
5.60496
5.89736
6.2046
6.52742
6.86654
7.22272
7.59672
7.98939
8.40155
8.8341
9.28796
9.76404
10.2633
10.7868
11.3356
11.9104
12.5128
13.1437
13.8042
14.4953
15.2182
15.9741
16.764
17.5895
18.4516
19.3518
20.291
21.2702
22.2906
23.3538
24.4607
25.6129
26.8111
28.0564
29.3496
30.6922
32.0846
33.5279
35.023
36.5699
38.1703
39.825
41.5339
43.2985
45.1286
47.0345
49.0294
51.1209
53.309
55.5878
57.9542
60.4071
62.9504
65.5871
68.3247
71.1736
74.1522
77.2841
80.6085
84.1389
87.9884
92.0848
97.1726
102.467
111.67
123.487
146.644
216.908
42.0011
1.04551
0.0832259
0.0403686
0.163195
0.624784
1.21712
1.48418
1.43731
1.42837
1.63215
1.90544
2.09237
2.19442
2.28094
2.38912
2.51687
2.65354
2.7952
2.94282
3.09789
3.26112
3.43287
3.61352
3.8035
4.0033
4.21342
4.43437
4.66671
4.91097
5.16776
5.43766
5.72132
6.01942
6.33263
6.66167
7.00726
7.37017
7.75122
8.15123
8.57107
9.01161
9.47378
9.9585
10.4667
10.9995
11.5579
12.1429
12.7555
13.3969
14.0682
14.7707
15.5053
16.2734
17.076
17.9144
18.7898
19.7034
20.6564
21.65
22.6854
23.7637
24.886
26.0536
27.2671
28.5283
29.8376
31.1961
32.6046
34.0645
35.5761
37.1399
38.7576
40.4281
42.156
43.9488
45.818
47.7757
49.8304
51.9723
54.2028
56.5195
58.9205
61.4104
63.9916
66.6729
69.4626
72.3758
75.4373
78.6892
82.1577
85.9624
90.0212
95.1433
100.326
110.144
121.816
147.472
234.955
42.1989
1.81631
0.0818611
0.0724536
0.551765
1.61981
2.33013
2.2377
1.59919
1.12774
1.25651
1.69671
2.02521
2.16233
2.22955
2.31693
2.43591
2.56963
2.70832
2.85169
3.0018
3.15984
3.32619
3.50118
3.68522
3.87875
4.08228
4.29633
4.52139
4.758
5.00676
5.26825
5.54308
5.8319
6.13535
6.45416
6.78905
7.14075
7.51005
7.89775
8.30468
8.73173
9.17976
9.64969
10.1425
10.6592
11.2007
11.768
12.3624
12.9848
13.6362
14.318
15.0311
15.7767
16.5561
17.3703
18.2207
19.1083
20.0345
21.0002
22.0069
23.0555
24.1471
25.2835
26.4645
27.6926
28.9678
30.2917
31.6648
33.0876
34.5617
36.0876
37.6664
39.2976
40.9871
42.7417
44.5744
46.4946
48.5038
50.5987
52.7795
55.0437
57.3916
59.8263
62.3519
64.9717
67.6969
70.5402
73.5308
76.7071
80.1063
83.848
87.8561
93.0051
98.0791
108.659
120.226
148.517
258.165
42.3779
2.66937
0.0832537
0.158506
1.4164
2.95941
3.39763
2.73032
1.5233
0.706631
0.833015
1.45429
1.92987
2.11858
2.18032
2.24936
2.35621
2.4845
2.61986
2.75933
2.90467
3.05746
3.21831
3.38758
3.56561
3.75283
3.94971
4.15675
4.37445
4.60336
4.84401
5.09699
5.36288
5.64233
5.93594
6.24442
6.56847
6.90882
7.26621
7.64144
8.03532
8.4487
8.88242
9.3374
9.81458
10.3149
10.8394
11.3889
11.9647
12.5675
13.1988
13.8595
14.5507
15.2735
16.0292
16.8188
17.6437
18.5048
19.4036
20.341
21.3184
22.3367
23.3973
24.5013
25.6493
26.8432
28.0833
29.3713
30.7074
32.0927
33.5282
35.0154
36.5539
38.1454
39.7949
41.5094
43.3044
45.1817
47.1446
49.1912
51.3206
53.5323
55.8248
58.2018
60.6664
63.2223
65.8799
68.6513
71.5647
74.6601
77.9791
81.6469
85.6043
90.7594
95.7522
107.225
118.674
150.794
292.539
42.5449
4.21396
0.0214306
0.485673
2.67746
4.28476
4.1355
2.79118
1.22312
0.407542
0.625756
1.27079
1.76502
2.00396
2.10905
2.18819
2.2844
2.40105
2.52994
2.66539
2.80645
2.95415
3.10946
3.27292
3.44486
3.62571
3.81588
4.01587
4.22616
4.44729
4.67976
4.92414
5.18099
5.45096
5.73465
6.03271
6.34583
6.67471
7.02009
7.38273
7.76342
8.16298
8.58225
9.02213
9.48345
9.96727
10.4744
11.0059
11.5629
12.1461
12.7569
13.3963
14.0652
14.765
15.4966
16.2613
17.0603
17.8945
18.7654
19.6738
20.6213
21.6086
22.6374
23.7085
24.8225
25.9817
27.1859
28.437
29.7355
31.0821
32.4783
33.9246
35.4215
36.9715
38.5787
40.2548
42.0073
43.8397
45.7546
47.7502
49.8259
51.9809
54.2168
56.533
58.9337
61.4207
64.0065
66.705
69.5409
72.5521
75.7855
79.3689
83.276
88.4042
93.4142
105.762
117.153
155.175
348.762
42.6827
2.25175
0.0610735
1.03839
3.67312
4.98294
4.19306
2.34113
0.850263
0.47168
0.800387
1.18735
1.48625
1.75753
1.98084
2.1266
2.22562
2.32401
2.43998
2.56972
2.70692
2.84998
2.99982
3.15739
3.3232
3.49762
3.68104
3.87393
4.07676
4.29004
4.51426
4.75
4.99778
5.2582
5.53187
5.81943
6.12152
6.43884
6.7721
7.12205
7.48944
7.87507
8.27975
8.70438
9.14972
9.61685
10.1066
10.6198
11.1577
11.7212
12.3112
12.9289
13.5754
14.2518
14.959
15.6985
16.4711
17.278
18.1206
18.9997
19.9167
20.8726
21.8687
22.9062
23.9856
25.109
26.2767
27.4898
28.7495
30.0562
31.4114
32.8156
34.2698
35.7767
37.3418
38.9753
40.6831
42.469
44.3347
46.2762
48.2971
50.3929
52.5686
54.8207
57.1548
59.5719
62.0857
64.7075
67.4634
70.3896
73.5378
77.037
80.904
85.9502
91.1442
104.008
115.762
161.966
442.25
42.7195
1.753
0.31532
2.48959
4.90632
4.90484
3.16191
1.31104
0.479223
0.675853
0.996539
1.03102
1.09191
1.4021
1.78893
2.04837
2.17366
2.25546
2.35282
2.4732
2.60598
2.74488
2.88953
3.04122
3.20082
3.36876
3.54539
3.73115
3.92647
4.13186
4.3478
4.57483
4.81348
5.0643
5.3279
5.60489
5.89589
6.20158
6.52265
6.85982
7.21381
7.58541
7.9754
8.38463
8.8139
9.26419
9.73632
10.2312
10.7499
11.2933
11.8624
12.4583
13.0821
13.7347
14.4173
15.131
15.877
16.6561
17.4699
18.3193
19.2054
20.1291
21.0923
22.0952
23.1394
24.2259
25.3559
26.5301
27.7497
29.0158
30.3285
31.6901
33.1003
34.5626
36.0847
37.673
39.3343
41.0712
42.8847
44.7725
46.7351
48.7719
50.8827
53.067
55.332
57.6796
60.1218
62.671
65.3501
68.1976
71.2644
74.6761
78.5153
83.4235
89.0012
101.497
115.096
168.148
580.806
42.4186
4.87354
24.6142
14.1216
9.36452
4.46166
1.27972
0.125236
0.137672
0.489305
0.649791
0.59155
0.67165
1.07536
1.58731
1.94532
2.11118
2.18935
2.26962
2.37757
2.50417
2.63882
2.7786
2.92453
3.07788
3.23929
3.4091
3.58769
3.77548
3.97295
4.18057
4.39884
4.6283
4.86948
5.12296
5.38932
5.66917
5.96316
6.27196
6.59626
6.93677
7.29424
7.66943
8.06316
8.47623
8.90954
9.36393
9.84022
10.3395
10.8627
11.4107
11.9846
12.5853
13.2141
13.8716
14.5593
15.2781
16.0292
16.8137
17.6327
18.4873
19.3785
20.3079
21.2758
22.2838
23.3329
24.4244
25.5589
26.7373
27.9616
29.231
30.5477
31.9133
33.3309
34.8074
36.3505
37.9642
39.6505
41.4104
43.2429
45.145
47.1197
49.1652
51.2842
53.4825
55.7619
58.1354
60.6149
63.2226
65.9978
68.9968
72.3323
76.1414
80.8862
86.9358
98.0073
115.817
166.733
669.579
43.1903
51.3647
229.307
82.6605
20.8304
1.6999
0.0669899
0.00802354
0.0219665
0.0331138
0.0650985
0.161331
0.421127
0.899476
1.44098
1.8353
2.03084
2.11534
2.1861
2.28297
2.40243
2.5322
2.66702
2.80724
2.95436
3.1092
3.27215
3.44353
3.62375
3.81326
4.0125
4.22199
4.44221
4.67369
4.91698
5.17264
5.44127
5.72349
6.01994
6.33128
6.65821
7.00144
7.36172
7.73982
8.13655
8.55271
8.98917
9.44678
9.92648
10.4291
10.9558
11.5073
12.0848
12.6892
13.3215
13.983
14.6743
15.3969
16.1518
16.9399
17.7626
18.6207
19.5156
20.4482
21.4195
22.4308
23.4829
24.5773
25.7143
26.8952
28.1213
29.3928
30.7126
32.0854
33.5171
35.0149
36.5804
38.2161
39.922
41.6963
43.5393
45.4522
47.4364
49.492
51.6273
53.8452
56.1574
58.5774
61.1253
63.8387
66.7759
70.0405
73.8081
78.4021
84.7853
94.0945
117.295
149.73
628.915
48.1503
603.544
7675.36
462.325
24.8027
1.31147
0.127716
0.0508905
0.0107424
0.0979694
0.252536
0.355364
0.509741
0.876235
1.3628
1.74722
1.94545
2.0294
2.09558
2.18682
2.30096
2.42553
2.55484
2.68916
2.83002
2.97829
3.13435
3.29848
3.47107
3.65257
3.8434
4.04402
4.25495
4.47666
4.70969
4.95459
5.21191
5.48227
5.76627
6.06455
6.37779
6.70667
7.05191
7.41425
7.79449
8.19333
8.61172
9.05042
9.51029
9.99232
10.4973
11.0263
11.5802
12.1601
12.7669
13.4016
14.0653
14.7592
15.4842
16.2414
17.0318
17.8568
18.7172
19.6143
20.5486
21.522
22.535
23.5888
24.6848
25.823
27.0056
28.233
29.5085
30.837
32.2248
33.6776
35.1952
36.781
38.4337
40.1532
41.9412
43.7976
45.7249
47.7256
49.8054
51.9686
54.227
56.5941
59.0901
61.7507
64.6305
67.8305
71.5372
76.0169
82.4502
90.6023
116.758
124.522
578.583
38.3803
97.6126
1312.78
120.594
6.41853
0.14174
1.62406
0.435433
0.106537
0.154858
0.382618
0.518817
0.659912
0.971199
1.3806
1.69942
1.86115
1.93304
1.998
2.08862
2.19949
2.31883
2.44223
2.57045
2.70503
2.84674
2.99589
3.15276
3.31771
3.49117
3.67357
3.86533
4.06694
4.27887
4.50163
4.73574
4.98175
5.24022
5.51176
5.79697
6.0965
6.41102
6.7412
7.08778
7.45148
7.83306
8.23334
8.65314
9.09321
9.55457
10.0379
10.5443
11.0748
11.63
12.2114
12.8197
13.4559
14.1212
14.8167
15.5432
16.3021
17.0942
17.9208
18.7831
19.6816
20.6182
21.5934
22.6082
23.6642
24.7623
25.9032
27.0889
28.3234
29.6112
30.9573
32.3672
33.8406
35.3802
36.9848
38.6563
40.3938
42.2007
44.0783
46.0295
48.0616
50.1773
52.3901
54.7092
57.1563
59.7655
62.5896
65.7238
69.3499
73.7251
79.9661
87.7573
112.657
111.602
525.162
42.5717
13.4795
6.12294
14.1176
10.549
6.85966
4.09893
1.93569
0.557947
0.0412875
0.0658056
0.124872
0.459773
0.970074
1.41268
1.67051
1.78144
1.83782
1.90281
1.99284
2.09967
2.2136
2.33137
2.45379
2.58228
2.71758
2.85998
3.00978
3.1673
3.33295
3.50714
3.69029
3.88286
4.08529
4.29809
4.52175
4.75679
5.00377
5.26326
5.53584
5.82214
6.1228
6.43847
6.76986
7.11766
7.48263
7.86552
8.26715
8.68828
9.12985
9.59253
10.0774
10.5854
11.1173
11.6744
12.2576
12.8679
13.5064
14.1741
14.872
15.6014
16.363
17.1584
17.9884
18.854
19.7568
20.6974
21.6772
22.6968
23.7584
24.8618
26.0105
27.2079
28.4596
29.769
31.1413
32.5762
34.0749
35.6388
37.2677
38.9631
40.7265
42.5607
44.4694
46.4563
48.5268
50.6929
52.9638
55.3589
57.9121
60.6746
63.7365
67.2707
71.5292
77.4825
85.1225
106.982
105.624
468.621
43.1503
4.79726
0.925374
3.05789
5.11485
5.58859
4.80632
3.52251
2.14089
0.943772
0.207895
0.0756392
0.433006
0.963445
1.38737
1.61609
1.7088
1.75848
1.82121
1.90861
2.01155
2.12095
2.23394
2.35138
2.4746
2.60435
2.74095
2.88465
3.03579
3.19473
3.36188
3.53765
3.72249
3.91682
4.12113
4.33589
4.56162
4.79885
5.04813
5.31004
5.58517
5.87416
6.17764
6.49628
6.83078
7.18188
7.55031
7.9368
8.34223
8.76739
9.21304
9.68021
10.1696
10.6825
11.2197
11.7823
12.3714
12.988
13.633
14.3076
15.0129
15.7498
16.5198
17.3235
18.1622
19.0372
19.9493
20.9001
21.8898
22.9208
23.9935
25.1116
26.2784
27.4991
28.7782
30.1183
31.5213
32.9864
34.5163
36.109
37.7689
39.4946
41.2885
43.1542
45.0955
47.1163
49.2293
51.443
53.7813
56.2729
58.9667
61.9458
65.3695
69.4819
75.116
82.5258
101.315
102.029
414.562
43.2141
3.82792
0.0165147
0.0445613
1.27249
2.83503
3.60092
3.46723
2.78792
1.84504
0.911994
0.323653
0.347966
0.817547
1.30579
1.58288
1.68463
1.72771
1.78408
1.8681
1.96906
2.07665
2.18761
2.30278
2.42356
2.55074
2.68467
2.82559
2.97382
3.12972
3.29369
3.46614
3.6475
3.8382
4.03872
4.24952
4.47113
4.70405
4.94883
5.20605
5.47629
5.76017
6.05833
6.37144
6.70014
7.04522
7.40736
7.78731
8.18592
8.60392
9.04216
9.50152
9.98285
10.4872
11.0154
11.5685
12.1475
12.7535
13.3873
14.0499
14.7426
15.466
16.2215
17.0095
17.8315
18.6884
19.581
20.5109
21.4787
22.4866
23.5355
24.629
25.7706
26.9654
28.2193
29.5326
30.9092
32.3468
33.8479
35.4104
37.0375
38.7257
40.4768
42.2935
44.183
46.1476
48.2002
50.3479
52.6181
55.0343
57.6443
60.5183
63.8016
67.7341
73.029
80.0479
96.299
99.0282
362.846
43.2082
1.16591
0.0793399
0.242036
0.765167
1.87953
2.7324
2.8786
2.50954
1.85487
1.11809
0.587441
0.553474
0.934967
1.3652
1.61657
1.71063
1.75548
1.81744
1.90652
2.0105
2.11993
2.23271
2.3501
2.47341
2.60329
2.74004
2.88392
3.03526
3.19445
3.36189
3.538
3.72321
3.91797
4.12276
4.33807
4.56441
4.80232
5.05235
5.31509
5.59113
5.88111
6.18568
6.50551
6.84127
7.19375
7.56361
7.95171
8.35873
8.78561
9.23305
9.70202
10.1934
10.7079
11.2467
11.8107
12.4006
13.0178
13.6628
14.3367
15.0406
15.775
16.5413
17.3399
18.172
19.0381
19.9392
20.8766
21.8507
22.8629
23.914
25.0068
26.1444
27.3322
28.5746
29.8722
31.2295
32.6416
34.1106
35.6325
37.2078
38.8314
40.5068
42.2435
44.0488
45.9328
47.902
49.9627
52.1355
54.4481
56.9424
59.6816
62.7915
66.5
71.4216
77.9612
92.0669
96.9162
313.639
43.1867
3.87063
0.0760813
1.64668
3.72759
4.58749
4.09701
2.94412
1.66968
0.700738
0.318524
0.477052
0.889601
1.28772
1.5507
1.68426
1.752
1.81316
1.89362
1.99232
2.10053
2.21331
2.33028
2.45267
2.58142
2.71701
2.8597
3.00982
3.16772
3.33382
3.50851
3.69226
3.88548
4.08868
4.30233
4.52694
4.76306
5.01124
5.27206
5.54613
5.83406
6.13652
6.45418
6.78774
7.13793
7.50549
7.8912
8.29588
8.72026
9.16533
9.63176
10.1207
10.6328
11.169
11.7305
12.318
12.9325
13.5749
14.2463
14.9477
15.6797
16.4435
17.2402
18.07
18.9347
19.834
20.7694
21.7414
22.7506
23.7975
24.8824
26.0072
27.1744
28.3882
29.653
30.9695
32.3414
33.7648
35.239
36.759
38.3234
39.9266
41.5709
43.2629
45.0055
46.8077
48.6668
50.5886
52.5947
54.7319
57.0497
59.6097
62.5105
65.9616
70.4898
76.6255
89.0725
96.3948
274.999
43.111
2.23223
2.58385
9.23252
9.51455
6.96806
4.17894
1.8529
0.450121
0.00643522
0.19792
0.685333
1.17744
1.50817
1.67436
1.75273
1.81308
1.88838
1.98279
2.08935
2.20206
2.31912
2.44122
2.56941
2.70438
2.84644
2.99592
3.15315
3.31854
3.4925
3.67548
3.86792
4.07028
4.28307
4.50679
4.74199
4.98921
5.24905
5.5221
5.809
6.11039
6.42696
6.75942
7.10848
7.47492
7.85947
8.26301
8.68631
9.13025
9.59561
10.0834
10.5946
11.1299
11.6905
12.2771
12.891
13.5328
14.2037
14.9047
15.6368
16.4008
17.1977
18.0285
18.8937
19.7949
20.7321
21.7065
22.7183
23.7684
24.8574
25.9849
27.1521
28.3615
29.6156
30.9208
32.2772
33.6899
35.1563
36.6741
38.2389
39.8483
41.4974
43.1841
44.9059
46.6627
48.453
50.2726
52.1244
54.0333
56.0391
58.1951
60.5622
63.2414
66.4555
70.6698
76.5702
87.7719
96.8793
248.657
42.7508
71.8065
40.9714
29.2174
14.8273
6.07557
1.68471
0.218862
0.0338038
0.02421
0.296511
0.807212
1.30792
1.62455
1.76514
1.82667
1.88658
1.97081
2.07439
2.18719
2.30456
2.42639
2.55393
2.68811
2.82937
2.97803
3.13443
3.29893
3.47196
3.65395
3.84537
4.04667
4.25836
4.48093
4.71493
4.96091
5.21946
5.49117
5.77668
6.07665
6.39174
6.72267
7.07017
7.435
7.81793
8.21978
8.64138
9.08357
9.54727
10.0333
10.5427
11.0763
11.6351
12.2202
12.8323
13.4727
14.1422
14.8418
15.5726
16.3357
17.1317
17.9618
18.8272
19.728
20.6659
21.6411
22.6544
23.7066
24.7981
25.9294
27.1005
28.3122
29.5657
30.8641
32.2117
33.6126
35.0704
36.5852
38.1537
39.7717
41.4363
43.1425
44.8854
46.6634
48.4714
50.3105
52.1767
54.0747
56.0217
58.0325
60.1486
62.4266
64.981
68.0486
72.0322
77.7446
87.7601
97.9772
229.692
37.4129
382.643
132.602
86.7082
23.7647
2.88343
0.382275
0.0161924
0.00793583
0.0212373
0.254493
0.769471
1.33203
1.69842
1.84993
1.90599
1.9652
2.05533
2.16582
2.28406
2.40612
2.53295
2.66605
2.80619
2.95372
3.10894
3.27222
3.44397
3.62462
3.81462
4.01445
4.22459
4.44556
4.67789
4.92212
5.17885
5.44867
5.73221
6.03013
6.34311
6.67184
7.01707
7.37954
7.76005
8.15936
8.5784
9.01792
9.47887
9.96221
10.4687
10.9994
11.5554
12.1375
12.7467
13.3841
14.0507
14.7475
15.4754
16.2358
17.0294
17.8571
18.7201
19.6193
20.5552
21.5293
22.5418
23.5935
24.6855
25.8175
26.9903
28.204
29.4592
30.7564
32.098
33.4877
34.932
36.436
38.0005
39.6201
41.2917
43.0104
44.774
46.5754
48.4147
50.2839
52.1867
54.1165
56.0813
58.0891
60.1526
62.3087
64.6123
67.1776
70.2215
74.0634
79.5897
88.5458
99.4183
214.702
174.932
2159.94
26649.4
886.209
43.0386
3.38702
0.361857
0.0361907
0.00390504
0.0442397
0.166268
0.661667
1.28529
1.72957
1.9242
1.99048
2.04949
2.1415
2.2565
2.37978
2.5068
2.63883
2.77751
2.92356
3.07731
3.23905
3.40918
3.58814
3.77636
3.97432
4.18252
4.40145
4.63165
4.87366
5.12807
5.39548
5.67651
5.97181
6.28206
6.60796
6.95024
7.30965
7.68698
8.08305
8.49865
8.93471
9.39205
9.87162
10.3743
10.9012
11.4531
12.0311
12.6362
13.2694
13.9318
14.6242
15.3481
16.104
16.8932
17.717
18.576
19.4711
20.4035
21.374
22.3833
23.4324
24.5217
25.6523
26.8238
28.0376
29.2929
30.5907
31.9303
33.3141
34.7459
36.2312
37.7788
39.3891
41.0589
42.7839
44.5559
46.3754
48.2346
50.1335
52.0637
54.0294
56.0242
58.0539
60.1255
62.2558
64.479
66.8505
69.4758
72.5529
76.3117
81.6973
89.7552
100.969
201.862
49.9138
110.744
553.423
143.229
18.5361
2.36733
0.00651392
0.0232488
0.0872706
0.159709
0.282654
0.684946
1.29183
1.77298
1.99522
2.06957
2.13126
2.22732
2.34714
2.4751
2.60693
2.74417
2.88844
3.0404
3.20032
3.36856
3.54551
3.73165
3.9274
4.13329
4.34981
4.5775
4.81688
5.06854
5.33307
5.6111
5.90328
6.21027
6.53278
6.87154
7.22728
7.6008
7.9929
8.40442
8.83621
9.28915
9.76418
10.2623
10.7842
11.3312
11.9041
12.504
13.1319
13.7888
14.4758
15.194
15.9443
16.7281
17.5461
18.3993
19.289
20.2158
21.181
22.1856
23.2297
24.3146
25.4409
26.6091
27.8192
29.0727
30.3681
31.7071
33.0888
34.514
35.987
37.5118
39.1008
40.7549
42.4712
44.246
46.0706
47.9439
49.8601
51.8148
53.8061
55.8311
57.8888
59.9821
62.1182
64.3183
66.6143
69.0603
71.7479
74.8696
78.569
83.857
91.1662
102.586
191.56
40.4441
14.9025
83.5842
22.9105
7.60528
0.981727
0.292276
0.271665
0.687239
0.749267
0.632435
0.875534
1.42578
1.86968
2.0641
2.13414
2.20632
2.31267
2.4383
2.57025
2.70651
2.84895
2.99885
3.1567
3.32277
3.49746
3.68121
3.87449
4.07775
4.29154
4.51635
4.75274
5.00126
5.26252
5.53713
5.82574
6.129
6.44763
6.78233
7.13386
7.50299
7.89053
8.29731
8.72418
9.17202
9.64176
10.1344
10.6507
11.1918
11.7588
12.3525
12.974
13.6245
14.3048
15.0163
15.76
16.5366
17.3476
18.194
19.0764
19.9964
20.9545
21.9519
22.9896
24.0679
25.1878
26.3502
27.5557
28.8035
30.0957
31.4308
32.81
34.2326
35.6986
37.2113
38.7752
40.4033
42.0985
43.8586
45.6809
47.5564
49.4818
51.451
53.4605
55.5089
57.5917
59.71
61.8657
64.065
66.3352
68.7003
71.222
73.9714
77.1334
80.7947
86.0138
92.7313
104.2
182.118
42.2559
6.39291
1.38575
5.245
6.82097
4.38098
1.49628
0.349625
0.61438
0.878403
0.951854
1.24401
1.68363
1.98793
2.11692
2.18826
2.28009
2.39875
2.5293
2.66471
2.80541
2.95311
3.10862
3.2723
3.44448
3.6256
3.81612
4.0165
4.22724
4.44887
4.68193
4.92698
5.18458
5.45538
5.74
6.03912
6.35341
6.68359
7.03041
7.39463
7.77706
8.17851
8.59985
9.04197
9.50575
9.99217
10.5021
11.0366
11.5968
12.1834
12.7977
13.4408
14.1136
14.8171
15.5528
16.3213
17.124
17.9618
18.8361
19.7474
20.6972
21.6862
22.7154
23.7854
24.8974
26.0518
27.2494
28.4909
29.7756
31.1056
32.4792
33.8975
35.3598
36.8657
38.4174
40.0189
41.6847
43.4183
45.22
47.0858
49.0099
50.986
53.007
55.0707
57.1729
59.3144
61.4878
63.7068
65.9713
68.3093
70.7438
73.3363
76.1411
79.3455
82.98
88.1576
94.435
105.996
173.717
42.3859
2.6675
0.142982
3.76467
7.07859
6.02399
2.90585
0.678847
0.222654
0.654437
1.18698
1.62915
1.92762
2.07917
2.16012
2.24565
2.35725
2.48493
2.61909
2.75811
2.90352
3.05651
3.21756
3.38702
3.56528
3.75277
3.95
4.15743
4.37559
4.60502
4.84627
5.09991
5.36654
5.64682
5.9414
6.25093
6.57614
6.91778
7.27661
7.65341
8.04901
8.46426
8.90004
9.35727
9.83682
10.3397
10.8669
11.4194
11.9982
12.6045
13.2391
13.9034
14.5982
15.3247
16.0841
16.8773
17.7056
18.57
19.4716
20.4114
21.3903
22.4095
23.4696
24.5716
25.7165
26.9046
28.1367
29.4135
30.7347
32.1008
33.5122
34.9681
36.4686
38.0132
39.6031
41.2418
42.9431
44.713
46.5544
48.462
50.4327
52.4579
54.5292
56.6442
58.799
60.9963
63.2268
65.5048
67.8322
70.2358
72.7411
75.3995
78.258
81.5009
85.121
90.2864
96.2498
107.895
166.07
42.2012
0.39261
0.147869
2.48434
5.43538
5.49695
3.38997
1.1264
0.179864
0.606098
1.39263
1.88634
2.07296
2.13968
2.2095
2.31251
2.43699
2.56987
2.70731
2.85043
3.00073
3.15896
3.32548
3.50067
3.68495
3.87877
4.08265
4.29708
4.5226
4.75974
5.00909
5.27124
5.54683
5.83649
6.14088
6.46075
6.79681
7.1498
7.52052
7.90977
8.31842
8.74732
9.19737
9.66951
10.1647
10.6839
11.2281
11.7984
12.3956
13.0212
13.6759
14.361
15.0775
15.8268
16.6095
17.4271
18.2805
19.1709
20.0995
21.067
22.0747
23.1233
24.2141
25.3474
26.5241
27.7455
29.0106
30.3222
31.6782
33.08
34.5282
36.0204
37.5584
39.1409
40.7679
42.4421
44.1772
45.9818
47.8599
49.8088
51.8218
53.8934
56.0146
58.1795
60.3874
62.6359
64.9236
67.2579
69.651
72.1211
74.6915
77.4121
80.3178
83.5917
87.2065
92.373
98.139
109.882
158.777
41.9981
2.70461
0.200965
0.916207
3.01128
3.85278
2.94094
1.33044
0.48898
0.869915
1.60018
2.01492
2.13895
2.18893
2.2699
2.38572
2.51669
2.65304
2.79413
2.94169
3.0969
3.2603
3.43221
3.61306
3.8033
4.00338
4.21385
4.43521
4.668
4.91279
5.17016
5.44073
5.72516
6.0241
6.33825
6.66833
7.01509
7.3793
7.76177
8.16333
8.58486
9.02724
9.4914
9.97825
10.4889
11.0241
11.5851
12.1729
12.7885
13.433
14.1075
14.8133
15.5511
16.3224
17.1281
17.9696
18.8479
19.7639
20.7188
21.7137
22.7493
23.8267
24.9474
26.1114
27.3195
28.5725
29.8707
31.2154
32.6054
34.0419
35.5248
37.0527
38.6271
40.2457
41.9088
43.6184
45.3852
47.2233
49.1362
51.1232
53.1769
55.2921
57.4611
59.675
61.9351
64.2335
66.5775
68.9683
71.4195
73.9533
76.5903
79.3704
82.3178
85.6226
89.239
94.412
100.06
111.852
153.965
41.782
1.39382
0.130753
0.174105
1.0958
1.978
1.88318
1.16169
0.850901
1.25474
1.7944
2.08041
2.17576
2.23991
2.33673
2.46042
2.59504
2.73463
2.87971
3.03182
3.19189
3.36036
3.53761
3.72406
3.92017
4.12645
4.34343
4.57163
4.8116
5.06394
5.32924
5.60814
5.9013
6.2094
6.53316
6.87333
7.23066
7.60592
7.99997
8.41368
8.84792
9.30361
9.78169
10.2831
10.8089
11.36
11.9375
12.5425
13.176
13.8392
14.5332
15.2592
16.018
16.8112
17.6395
18.5045
19.4068
20.3478
21.3286
22.3502
23.4135
24.5192
25.6684
26.8621
28.1008
29.3847
30.7155
32.092
33.5159
34.9852
36.5023
38.0651
39.6736
41.3278
43.0259
44.7691
46.5671
48.4359
50.3809
52.404
54.4991
56.6552
58.8704
61.1293
63.4373
65.787
68.1832
70.6301
73.1446
75.7412
78.4383
81.266
84.2514
87.5817
91.2082
96.3952
101.953
113.72
149.9
41.5491
0.484799
0.00493632
0.038721
0.180915
0.598418
0.803848
0.844696
1.10527
1.57031
1.94686
2.13053
2.21398
2.29542
2.40494
2.53408
2.67184
2.81488
2.96406
3.1207
3.28555
3.45902
3.64152
3.83349
4.03542
4.24781
4.4712
4.70614
4.95321
5.21298
5.48612
5.77322
6.075
6.39213
6.72537
7.07547
7.44321
7.82939
8.23492
8.66059
9.10734
9.57611
10.0679
10.5836
11.1243
11.691
12.2848
12.9067
13.5579
14.2395
14.9525
15.6982
16.4778
17.2922
18.1428
19.0307
19.9568
20.9224
21.9284
22.9758
24.0659
25.1993
26.377
27.5996
28.868
30.1821
31.5437
32.9513
34.4073
35.9091
37.4592
39.0549
40.6974
42.3841
44.1158
45.8925
47.7201
49.6172
51.5953
53.6523
55.7856
57.9821
60.2404
62.5443
64.8989
67.2985
69.7448
72.2487
74.8194
77.474
80.2303
83.1058
86.1208
89.4762
93.1183
98.3144
103.801
115.434
145.442
41.2966
3.79289
0.341366
0.0123695
0.0309879
0.036127
0.233132
0.677139
1.26782
1.76614
2.05173
2.18074
2.26044
2.35394
2.4724
2.60613
2.74718
2.8938
3.04709
3.20819
3.37775
3.55615
3.74382
3.94123
4.14888
4.3673
4.59702
4.8386
5.09265
5.35975
5.64059
5.93579
6.24605
6.57209
6.91465
7.27452
7.6525
8.04944
8.46617
8.90359
9.3627
9.84434
10.3495
10.8793
11.4347
12.0168
12.6264
13.265
13.9335
14.6332
15.3649
16.1301
16.9298
17.7653
18.6376
19.5477
20.497
21.4864
22.5172
23.5901
24.7064
25.8667
27.0716
28.3228
29.6198
30.9642
32.3547
33.7934
35.28
36.8133
38.3947
40.0223
41.6973
43.4167
45.181
46.9901
48.8462
50.7701
52.7733
54.8649
57.0348
59.2703
61.5708
63.9196
66.3169
68.7644
71.2621
73.818
76.4458
79.1583
81.9648
84.8779
87.9194
91.2998
94.963
100.17
105.583
116.978
142.224
41.021
3.12013
0.215294
0.0195624
0.00472955
0.0201129
0.1636
0.720968
1.40015
1.88501
2.12499
2.23103
2.31165
2.4136
2.53881
2.6767
2.82109
2.97133
3.1287
3.2942
3.46838
3.65162
3.84438
4.04715
4.26043
4.48477
4.72071
4.96884
5.22974
5.50406
5.79248
6.09561
6.41421
6.749
7.10074
7.47024
7.85831
8.26579
8.6936
9.14259
9.61375
10.108
10.6265
11.1701
11.7398
12.3369
12.9622
13.6171
14.3025
15.0198
15.77
16.5542
17.3737
18.2297
19.1231
20.0553
21.0272
22.0401
23.0948
24.1924
25.3341
26.5204
27.7523
29.0309
30.3558
31.7284
33.1481
34.6165