/*--------------------------------*- C++ -*----------------------------------*\
  =========                 |
  \\      /  F ield         | OpenFOAM: The Open Source CFD Toolbox
   \\    /   O peration     | Website:  https://openfoam.org
    \\  /    A nd           | Version:  9
     \\/     M anipulation  |
\*---------------------------------------------------------------------------*/
FoamFile
{
    format      ascii;
    class       volScalarField;
    location    "1500";
    object      p;
}
// * * * * * * * * * * * * * * * * * * * * * * * * * * * * * * * * * * * * * //

dimensions      [0 2 -2 0 0 0 0];

internalField   nonuniform List<scalar> 
13446
(
0.00122573
0.00124052
0.00123693
0.00125475
0.00125155
0.00125271
0.00125695
0.001263
0.00126841
0.00126559
0.00126701
0.00127154
0.00127796
0.00128654
0.0012815
0.00127906
0.00128073
0.00128554
0.00129233
0.00130132
0.00131273
0.00129401
0.00129193
0.00129386
0.00129896
0.0013061
0.00131549
0.00132736
0.00134168
0.00135845
0.00137773
0.00139958
0.00142406
0.00145124
0.0014812
0.00151402
0.0015498
0.00158864
0.00163066
0.00167598
0.00172475
0.00177711
0.00183323
0.00189331
0.00195755
0.00202618
0.00209948
0.00217774
0.00226128
0.00235049
0.00244578
0.00254765
0.00130595
0.00130422
0.0013064
0.00131177
0.00131926
0.00132905
0.00134136
0.00135619
0.00137355
0.0013935
0.00141611
0.00144145
0.0014696
0.00150065
0.0015347
0.00157187
0.00161226
0.00165602
0.0017033
0.00175424
0.00180904
0.00186788
0.00193099
0.00199861
0.002071
0.00214847
0.00223136
0.00232004
0.00241494
0.00251653
0.00262533
0.00274195
0.00286706
0.0422272
0.0449606
0.0477694
0.0506308
0.0535133
0.0563741
0.0591571
0.0617831
0.0641544
0.0661288
0.0675251
0.068097
0.0675535
0.065394
0.0612439
0.054086
0.0438418
0.0280534
0.00893775
-0.0203807
-0.0487278
-0.0961158
-0.126782
-0.191001
-0.211411
-0.275829
0.00131731
0.00131591
0.00131835
0.00132398
0.00133181
0.00134199
0.00135473
0.00137006
0.00138799
0.00140859
0.00143194
0.00145811
0.00148721
0.00151932
0.00155457
0.00159309
0.00163499
0.00168045
0.00172962
0.00178269
0.00183986
0.00190135
0.00196741
0.00203831
0.00211436
0.00219589
0.00228328
0.00237696
0.00247738
0.00258507
0.00270061
0.00282466
0.00295794
0.00310126
0.0417086
0.0445201
0.0474416
0.0504608
0.0535582
0.0567063
0.0598678
0.062992
0.0660086
0.0688264
0.0713126
0.0732985
0.0745447
0.0747651
0.0734764
0.0702838
0.0641556
0.0549151
0.0400914
0.0215835
-0.00754205
-0.0365122
-0.0858058
-0.11863
-0.188115
-0.210181
-0.280487
0.00132808
0.00132701
0.00132969
0.00133558
0.00134374
0.00135429
0.00136746
0.00138327
0.00140176
0.00142299
0.00144705
0.00147403
0.00150404
0.00153719
0.00157361
0.00161343
0.0016568
0.0017039
0.00175492
0.00181005
0.00186952
0.00193358
0.0020025
0.00207659
0.00215619
0.00224166
0.00233342
0.00243194
0.00253771
0.00265132
0.00277339
0.00290462
0.0030458
0.00319781
0.00336159
0.00353822
0.0409246
0.0437654
0.0467422
0.0498482
0.0530732
0.0564017
0.0598105
0.0632673
0.0667291
0.0701315
0.073393
0.0763918
0.0789717
0.0809066
0.0819134
0.0815281
0.0793461
0.0743449
0.0662444
0.0525802
0.0349325
0.00626429
-0.0230381
-0.0741337
-0.109067
-0.184214
-0.208348
-0.285436
0.00133827
0.00133751
0.00134043
0.00134657
0.00135504
0.00136596
0.00137953
0.00139582
0.00141484
0.00143667
0.00146143
0.0014892
0.00152009
0.00155424
0.00159178
0.00163286
0.00167766
0.00172635
0.00177915
0.00183628
0.00189798
0.00196453
0.00203623
0.00211341
0.00219643
0.00228572
0.00238171
0.0024849
0.00259586
0.00271518
0.00284356
0.00298174
0.00313056
0.00329094
0.00346391
0.00365059
0.00385223
0.0260207
0.0279916
0.0300956
0.0323377
0.0347226
0.0372543
0.0399359
0.0427698
0.0457563
0.0488943
0.0521796
0.0556051
0.0591591
0.0628238
0.066572
0.0703652
0.0741485
0.0778484
0.0813577
0.084532
0.0871584
0.0889723
0.089528
0.0884093
0.0846268
0.0778012
0.0654634
0.0489316
0.0210294
-0.00829386
-0.0609143
-0.0978931
-0.179287
-0.205757
-0.290888
0.00134787
0.0013474
0.00135056
0.00135694
0.00136571
0.00137698
0.00139095
0.00140768
0.00142722
0.00144964
0.00147506
0.00150358
0.00153533
0.00157044
0.00160907
0.00165137
0.00169754
0.00174777
0.00180229
0.00186134
0.0019252
0.00199415
0.00206852
0.00214868
0.00223503
0.00232799
0.00242806
0.00253578
0.00265173
0.00277658
0.00291104
0.00305592
0.0032121
0.00338056
0.00356239
0.00375875
0.00397095
0.00420043
0.00444876
0.0251881
0.0271031
0.0291513
0.0313387
0.0336712
0.036154
0.0387923
0.041591
0.0445529
0.0476807
0.0509755
0.0544358
0.0580577
0.0618321
0.0657453
0.0697773
0.0738956
0.0780543
0.0821897
0.0862041
0.0899691
0.0932893
0.0959186
0.0974395
0.0974309
0.0949317
0.0895149
0.078696
0.063527
0.0367152
0.00777035
-0.0459843
-0.0848471
-0.172827
-0.202109
-0.297517
0.00135689
0.0013567
0.00136008
0.00136669
0.00137575
0.00138735
0.0014017
0.00141886
0.00143889
0.00146188
0.00148794
0.00151718
0.00154975
0.00158579
0.00162545
0.00166893
0.00171642
0.00176813
0.0018243
0.00188521
0.00195113
0.0020224
0.00209935
0.00218238
0.00227192
0.00236842
0.00247242
0.00258449
0.00270526
0.00283542
0.00297574
0.00312707
0.00329034
0.00346657
0.00365691
0.00386258
0.00408495
0.0043255
0.00458587
0.00486782
0.00517332
0.0167947
0.0180852
0.0194756
0.020972
0.0225806
0.0243081
0.0261609
0.0281455
0.0302686
0.032537
0.0349567
0.0375346
0.0402765
0.0431881
0.0462745
0.0495399
0.0529873
0.0566174
0.0604294
0.0644183
0.0685753
0.0728849
0.0773212
0.081847
0.0864077
0.0909227
0.0952753
0.0992901
0.102739
0.105236
0.106376
0.105229
0.101327
0.0922154
0.0786733
0.0533775
0.0252109
-0.0293334
-0.0697073
-0.164551
-0.196884
-0.306672
0.00136531
0.00136538
0.00136899
0.00137582
0.00138515
0.00139706
0.00141178
0.00142935
0.00144985
0.00147338
0.00150005
0.00152998
0.00156333
0.00160025
0.00164092
0.00168552
0.00173426
0.00178739
0.00184516
0.00190784
0.00197575
0.00204924
0.00212866
0.00221445
0.00230705
0.00240696
0.00251473
0.00263098
0.00275637
0.00289163
0.00303758
0.0031951
0.00336518
0.00354888
0.00374739
0.003962
0.00419412
0.00444531
0.00471722
0.00501173
0.00533081
0.00567665
0.00605158
0.00645816
0.00689912
0.0174096
0.0187453
0.0201838
0.0217316
0.0233951
0.0251811
0.0270966
0.0291486
0.0313441
0.0336904
0.0361949
0.0388647
0.041707
0.0447287
0.0479355
0.0513345
0.0549296
0.0587247
0.0627219
0.06692
0.0713135
0.0758927
0.0806396
0.0855249
0.090504
0.0955088
0.10044
0.105143
0.109415
0.112902
0.115212
0.115478
0.113187
0.105945
0.094319
0.0708792
0.0440166
-0.0107433
-0.052212
-0.154217
-0.189425
-0.317225
0.00137313
0.00137346
0.00137727
0.00138431
0.0013939
0.00140612
0.00142117
0.00143914
0.00146009
0.00148412
0.00151137
0.00154197
0.00157606
0.00161383
0.00165544
0.00170111
0.00175106
0.00180554
0.00186483
0.00192921
0.00199902
0.00207462
0.00215642
0.00224484
0.00234037
0.00244354
0.00255493
0.00267519
0.002805
0.00294515
0.00309649
0.00325995
0.00343654
0.0036274
0.00383374
0.00405691
0.00429838
0.00455974
0.00484273
0.00514926
0.00548137
0.00584128
0.00623142
0.00665438
0.00711297
0.00761019
0.00814926
0.0179992
0.0193785
0.0208634
0.0224607
0.024177
0.0260196
0.0279957
0.0301127
0.0323781
0.0348001
0.0373866
0.0401454
0.0430848
0.0462125
0.0495369
0.0530648
0.0568035
0.0607592
0.0649358
0.069336
0.0739596
0.0788024
0.0838515
0.0890866
0.0944741
0.0999599
0.10546
0.110844
0.11593
0.120406
0.123907
0.125625
0.12504
0.119828
0.110365
0.0891867
0.0641446
0.00982318
-0.0321529
-0.141098
-0.179122
-0.326746
0.00138036
0.00138092
0.00138493
0.00139217
0.001402
0.00141451
0.00142988
0.00144822
0.00146959
0.00149411
0.00152191
0.00155313
0.00158793
0.00162649
0.00166901
0.00171569
0.00176679
0.00182256
0.00188328
0.00194928
0.0020209
0.00209853
0.00218258
0.00227352
0.00237185
0.00247813
0.00259297
0.00271704
0.00285109
0.00299591
0.0031524
0.00332152
0.00350435
0.00370204
0.00391587
0.00414723
0.00439764
0.00466873
0.00496231
0.00528033
0.00562488
0.00599827
0.00640295
0.00684159
0.00731705
0.00783239
0.00839092
0.00899613
0.00965178
0.0103619
0.0111306
0.0119625
0.0128623
0.013835
0.0148858
0.0160203
0.0172443
0.0185637
0.019985
0.0215146
0.0231595
0.0249269
0.026824
0.0288585
0.0310381
0.0333713
0.0358665
0.0385322
0.0413771
0.0444104
0.0476416
0.0510791
0.0547324
0.0586102
0.0627207
0.0670715
0.0716688
0.076516
0.0816129
0.0869561
0.0925325
0.098318
0.104273
0.110331
0.116384
0.122278
0.127737
0.132438
0.135638
0.136829
0.13379
0.126731
0.108232
0.0855414
0.0324047
-0.00929973
-0.125102
-0.165423
-0.334682
0.001387
0.00138777
0.00139197
0.00139939
0.00140945
0.00142223
0.00143791
0.00145659
0.00147836
0.00150333
0.00153164
0.00156345
0.00159892
0.00163823
0.0016816
0.00172925
0.00178142
0.00183841
0.0019005
0.00196803
0.00204137
0.00212091
0.00220711
0.00230043
0.00240142
0.00251066
0.00262879
0.0027565
0.00289457
0.00304384
0.00320523
0.00337976
0.00356853
0.00377274
0.00399371
0.00423288
0.00449181
0.00477219
0.00507587
0.00540485
0.00576129
0.00614755
0.00656612
0.00701974
0.00751131
0.00804398
0.00862109
0.00924622
0.00992318
0.0106561
0.0114491
0.012307
0.0132344
0.0142366
0.0153188
0.0164867
0.0177462
0.0191035
0.0205651
0.0221378
0.0238286
0.0256451
0.0275948
0.0296856
0.031926
0.0343246
0.0368905
0.0396327
0.0425612
0.0456856
0.049016
0.0525631
0.0563376
0.0603501
0.0646116
0.0691314
0.0739189
0.0789822
0.0843267
0.0899556
0.0958629
0.102036
0.108448
0.115049
0.121757
0.128445
0.13488
0.140776
0.145471
0.148478
0.147728
0.14331
0.127914
0.108187
0.0570783
0.016506
-0.105315
-0.147841
-0.340605
0.00139303
0.00139401
0.00139838
0.00140597
0.00141625
0.00142927
0.00144523
0.00146424
0.00148638
0.00151178
0.00154057
0.00157293
0.00160902
0.00164904
0.0016932
0.00174175
0.00179495
0.00185308
0.00191645
0.00198543
0.00206039
0.00214175
0.00222997
0.00232555
0.00242906
0.0025411
0.00266234
0.0027935
0.00293539
0.00308889
0.00325494
0.00343461
0.00362902
0.00383943
0.00406719
0.00431379
0.00458083
0.00487005
0.00518334
0.00552277
0.00589054
0.00628905
0.00672086
0.00718875
0.00769571
0.0082449
0.00883976
0.00948392
0.0101813
0.0109359
0.0117522
0.0126349
0.0135888
0.0146191
0.0157314
0.0169314
0.018225
0.0196186
0.021119
0.022733
0.0244682
0.0263319
0.0283322
0.0304775
0.0327765
0.0352382
0.0378723
0.0406886
0.0436975
0.0469096
0.0503366
0.0539902
0.0578823
0.0620255
0.0664325
0.0711157
0.0760878
0.0813611
0.0869458
0.0928503
0.0990781
0.105627
0.112483
0.119614
0.126961
0.134425
0.141818
0.148902
0.1551
0.159966
0.161598
0.159994
0.148075
0.131946
0.0838969
0.0454709
-0.0814556
-0.125762
-0.343035
0.00139846
0.00139963
0.00140416
0.00141191
0.00142238
0.00143564
0.00145186
0.00147117
0.00149365
0.00151944
0.00154868
0.00158155
0.00161822
0.00165889
0.0017038
0.0017532
0.00180734
0.00186654
0.00193113
0.00200146
0.00207794
0.002161
0.00225113
0.00234884
0.00245473
0.00256941
0.00269358
0.00282801
0.00297351
0.003131
0.00330147
0.00348599
0.00368575
0.00390203
0.00413624
0.00438988
0.00466461
0.00496223
0.00528466
0.00563401
0.00601255
0.0064227
0.00686711
0.00734859
0.00787018
0.00843512
0.00904688
0.00970917
0.0104259
0.0112014
0.0120399
0.0129463
0.0139255
0.0149829
0.016124
0.0173546
0.0186809
0.0201094
0.0216471
0.0233009
0.0250785
0.0269877
0.0290368
0.0312344
0.03359
0.0361127
0.0388127
0.0417005
0.0447872
0.0480849
0.0516056
0.055362
0.0593674
0.0636366
0.0681846
0.0730263
0.0781774
0.0836541
0.0894709
0.0956429
0.102181
0.109093
0.116379
0.124024
0.131992
0.140216
0.148549
0.1568
0.164488
0.171225
0.175311
0.176691
0.168635
0.156669
0.112721
0.0777879
-0.0530609
-0.0989569
-0.339134
0.0014033
0.00140463
0.00140931
0.0014172
0.00142785
0.00144132
0.00145778
0.00147736
0.00150016
0.00152631
0.00155597
0.0015893
0.00162651
0.00166779
0.00171339
0.00176356
0.00181859
0.00187879
0.0019445
0.00201609
0.00209399
0.00217865
0.00227056
0.00237027
0.00247838
0.00259554
0.00272248
0.00285997
0.00300887
0.00317012
0.00334475
0.00353386
0.00373866
0.0039605
0.00420079
0.00446109
0.00474311
0.00504867
0.00537976
0.00573851
0.00612725
0.00654845
0.00700481
0.0074992
0.00803469
0.00861459
0.00924242
0.00992198
0.0106572
0.0114525
0.0123122
0.0132412
0.0142446
0.0153278
0.0164964
0.0177563
0.019114
0.0205761
0.0221495
0.0238416
0.02566
0.027613
0.0297091
0.0319573
0.0343672
0.0369487
0.0397124
0.0426693
0.0458313
0.0492114
0.0528223
0.0566779
0.0607933
0.065185
0.0698696
0.0748645
0.0801884
0.085861
0.0919029
0.0983335
0.105172
0.112435
0.120136
0.128279
0.136848
0.145807
0.155055
0.164452
0.17361
0.182213
0.188791
0.193258
0.189421
0.182225
0.143653
0.113745
-0.0202269
-0.0672304
-0.336157
0.00140753
0.00140901
0.00141382
0.00142184
0.00143266
0.00144632
0.001463
0.00148283
0.00150591
0.00153239
0.00156242
0.00159618
0.00163388
0.00167572
0.00172195
0.00177284
0.00182868
0.00188979
0.00195654
0.00202931
0.00210852
0.00219466
0.00228822
0.00238979
0.00249998
0.00261946
0.00274897
0.00288933
0.00304142
0.0032062
0.00338473
0.00357815
0.0037877
0.00401475
0.00426077
0.00452736
0.00481624
0.0051293
0.00546855
0.00583619
0.00623458
0.00666624
0.00713391
0.00764051
0.00818919
0.00878328
0.00942638
0.0101223
0.0108751
0.0116892
0.0125691
0.0135197
0.0145462
0.0156539
0.0168488
0.0181368
0.0195245
0.0210186
0.0226262
0.0243549
0.0262127
0.0282079
0.0303492
0.032646
0.0351083
0.0377464
0.0405714
0.0435949
0.0468297
0.0502894
0.0539878
0.0579395
0.0621619
0.066672
0.0714878
0.0766308
0.0821222
0.0879846
0.0942432
0.100924
0.108054
0.115658
0.12376
0.132382
0.141532
0.151202
0.161334
0.171841
0.182437
0.192879
0.20196
0.209591
0.210285
0.208306
0.176654
0.153423
0.0167875
-0.0285052
-0.352345
0.00141115
0.00141277
0.0014177
0.00142584
0.0014368
0.00145063
0.00146751
0.00148756
0.0015109
0.00153767
0.00156804
0.00160219
0.00164032
0.00168266
0.00172947
0.00178101
0.00183759
0.00189955
0.00196724
0.00204108
0.00212151
0.002209
0.0023041
0.00240739
0.0025195
0.00264112
0.00277304
0.00291607
0.00307112
0.00323919
0.00342136
0.00361881
0.00383281
0.00406475
0.00431614
0.00458862
0.00488395
0.00520405
0.00555099
0.005927
0.00633447
0.006776
0.00725434
0.00777248
0.00833363
0.00894115
0.00959868
0.0103102
0.0110797
0.0119116
0.0128107
0.0137818
0.0148301
0.0159614
0.0171814
0.0184962
0.0199125
0.0214372
0.0230776
0.0248414
0.0267369
0.0287724
0.0309571
0.0333008
0.0358137
0.0385066
0.0413908
0.044479
0.0477841
0.0513205
0.0551029
0.0591476
0.0634726
0.0680966
0.0730408
0.0783276
0.0839805
0.0900264
0.0964944
0.103417
0.110826
0.118757
0.127247
0.136332
0.146039
0.156391
0.167378
0.178963
0.190953
0.203188
0.214732
0.225519
0.230983
0.234557
0.211794
0.196842
0.0619859
0.0232279
-0.397675
0.00141417
0.00141591
0.00142095
0.00142918
0.00144028
0.00145425
0.0014713
0.00149155
0.00151511
0.00154214
0.00157281
0.0016073
0.00164583
0.00168862
0.00173594
0.00178807
0.00184531
0.00190803
0.00197658
0.0020514
0.00213293
0.00222167
0.00231817
0.00242303
0.0025369
0.00266051
0.00279463
0.00294013
0.00309793
0.00326905
0.0034546
0.00365579
0.00387392
0.00411042
0.00436683
0.00464481
0.00494617
0.00527287
0.00562701
0.00601086
0.00642687
0.00687766
0.00736605
0.00789506
0.00846794
0.00908813
0.0097593
0.0104855
0.0112708
0.0121196
0.0130368
0.0140274
0.0150966
0.0162501
0.017494
0.0188345
0.0202781
0.0218321
0.0235039
0.0253014
0.0272328
0.0293071
0.0315336
0.0339224
0.036484
0.0392295
0.0421709
0.0453213
0.0486943
0.0523044
0.0561682
0.060303
0.0647269
0.0694618
0.0745294
0.079954
0.0857634
0.0919871
0.0986567
0.10581
0.113488
0.121736
0.130599
0.140127
0.15037
0.161379
0.173183
0.185796
0.199124
0.213093
0.227045
0.240941
0.251269
0.26058
0.248798
0.243194
0.123636
0.0955827
-0.428407
0.00141659
0.00141843
0.00142355
0.00143188
0.00144308
0.00145718
0.00147438
0.00149479
0.00151855
0.00154581
0.00157673
0.00161152
0.00165039
0.00169358
0.00174135
0.00179399
0.00185183
0.00191522
0.00198455
0.00206024
0.00214276
0.00223262
0.00233039
0.00243668
0.00255216
0.00267757
0.00281372
0.00296148
0.0031218
0.00329573
0.0034844
0.00368904
0.003911
0.00415172
0.00441277
0.00469587
0.00500284
0.00533569
0.00569654
0.00608772
0.0065117
0.00697117
0.00746897
0.00800818
0.00859208
0.00922417
0.0099082
0.0106482
0.0114484
0.0123132
0.0132476
0.0142566
0.0153456
0.0165202
0.0177868
0.0191515
0.0206212
0.0222032
0.023905
0.0257345
0.0277005
0.0298121
0.0320787
0.0345106
0.0371189
0.0399151
0.0429115
0.0461215
0.0495599
0.0532418
0.0571844
0.0614063
0.0659267
0.0707677
0.0759539
0.081512
0.0874717
0.0938657
0.10073
0.108107
0.116046
0.124597
0.133814
0.143767
0.154524
0.166161
0.178745
0.19234
0.206941
0.222563
0.238806
0.255708
0.270804
0.285828
0.28635
0.290737
0.206564
0.18851
-0.344953
0.0014184
0.00142033
0.00142552
0.00143391
0.00144521
0.00145942
0.00147673
0.00149729
0.00152121
0.00154866
0.0015798
0.00161484
0.00165401
0.00169753
0.00174569
0.00179878
0.00185714
0.00192112
0.00199112
0.00206758
0.00215098
0.00224184
0.00234075
0.00244832
0.00256525
0.00269229
0.00283027
0.00298008
0.00314269
0.00331918
0.0035107
0.00371852
0.00394398
0.00418858
0.00445392
0.00474174
0.0050539
0.00539244
0.00575952
0.0061575
0.00658891
0.00705645
0.00756303
0.00811176
0.00870597
0.00934922
0.0100453
0.0107983
0.0116125
0.0124924
0.0134429
0.0144693
0.0155769
0.0167716
0.0180596
0.0194474
0.0209419
0.0225505
0.0242807
0.0261409
0.02814
0.030287
0.0325919
0.0350652
0.0377184
0.0405633
0.0436127
0.0468804
0.0503817
0.054133
0.0581515
0.0624568
0.0670702
0.0720147
0.0773162
0.0830024
0.0891064
0.0956652
0.102718
0.110311
0.118499
0.127337
0.136895
0.147255
0.158501
0.170733
0.184055
0.198576
0.214375
0.231559
0.249962
0.269709
0.289297
0.30986
0.322413
0.33727
0.299644
0.29053
-0.0672802
0.00141961
0.0014216
0.00142685
0.0014353
0.00144666
0.00146096
0.00147837
0.00149904
0.00152309
0.00155069
0.00158201
0.00161726
0.00165666
0.00170047
0.00174896
0.00180243
0.00186122
0.00192571
0.00199629
0.00207342
0.00215758
0.00224932
0.00234922
0.00245792
0.00257613
0.00270463
0.00284424
0.00299589
0.00316057
0.00333937
0.00353348
0.00374416
0.00397282
0.00422097
0.00449022
0.00478236
0.00509929
0.00544306
0.00581588
0.00622015
0.00665841
0.00713344
0.00764816
0.00820574
0.00880954
0.00946319
0.0101705
0.0109356
0.0117629
0.012657
0.0136227
0.0146654
0.0157907
0.0170043
0.0183127
0.0197222
0.0212402
0.0228739
0.0246313
0.0265209
0.0285514
0.0307324
0.033074
0.035587
0.038283
0.0411746
0.0442749
0.0475985
0.0511602
0.0549776
0.0590691
0.0634544
0.0681568
0.073201
0.0786137
0.084424
0.0906685
0.097386
0.104619
0.112418
0.120842
0.129957
0.13984
0.150586
0.162296
0.175093
0.189112
0.204508
0.221431
0.240064
0.260442
0.282818
0.306473
0.332257
0.355383
0.380833
0.383345
0.388794
0.255072
0.0014202
0.00142225
0.00142754
0.00143602
0.00144744
0.00146181
0.00147929
0.00150004
0.00152419
0.0015519
0.00158336
0.00161877
0.00165836
0.00170239
0.00175114
0.00180491
0.00186406
0.00192897
0.00200003
0.00207772
0.00216254
0.00225502
0.00235578
0.00246546
0.00258479
0.00271455
0.00285561
0.00300888
0.0031754
0.00335626
0.00355266
0.00376593
0.00399747
0.00424881
0.00452161
0.00481768
0.00513894
0.00548748
0.00586555
0.00627557
0.00672014
0.00720205
0.00772428
0.00829003
0.00890273
0.00956603
0.0102838
0.0110602
0.0118996
0.0128069
0.0137869
0.014845
0.0159867
0.0172182
0.0185456
0.0199758
0.021516
0.0231736
0.0249568
0.026874
0.0289345
0.0311479
0.0335246
0.0360754
0.0388126
0.0417488
0.0448975
0.048274
0.0518941
0.0557752
0.0599369
0.0644004
0.0691887
0.0743273
0.079846
0.0857758
0.0921548
0.0990239
0.106429
0.114425
0.123075
0.132454
0.142649
0.153761
0.165908
0.179231
0.193897
0.210101
0.228058
0.248019
0.270187
0.294939
0.322144
0.352584
0.384193
0.419619
0.449348
0.477079
0.477784
0.00142019
0.00142228
0.00142759
0.0014361
0.00144755
0.00146196
0.00147948
0.00150029
0.0015245
0.00155229
0.00158384
0.00161937
0.00165909
0.00170328
0.00175222
0.00180623
0.00186566
0.00193089
0.00200235
0.00208049
0.00216584
0.00225894
0.00236041
0.00247092
0.0025912
0.00272205
0.00286434
0.00301902
0.00318713
0.0033698
0.00356824
0.00378379
0.00401788
0.00427207
0.00454804
0.00484763
0.00517279
0.00552565
0.00590847
0.00632372
0.00677403
0.00726222
0.00779133
0.00836457
0.00898544
0.0096576
0.010385
0.0111719
0.0120227
0.0129421
0.0139354
0.0150078
0.0161649
0.017413
0.0187584
0.020208
0.021769
0.0234492
0.0252566
0.0272001
0.0292889
0.0315329
0.0339429
0.03653
0.0393065
0.0422854
0.0454806
0.048908
0.0525842
0.0565267
0.0607559
0.0652941
0.0701648
0.0753946
0.0810147
0.0870589
0.0935655
0.10058
0.10815
0.116334
0.125199
0.13483
0.145318
0.156773
0.169328
0.183147
0.198413
0.215356
0.23425
0.255418
0.27918
0.306009
0.336176
0.370551
0.408602
0.45211
0.497795
0.545371
0.595476
0.00141957
0.00142168
0.001427
0.00143552
0.00144698
0.00146141
0.00147895
0.00149978
0.00152403
0.00155186
0.00158346
0.00161905
0.00165885
0.00170314
0.00175221
0.00180638
0.001866
0.00193147
0.00200322
0.0020817
0.00216746
0.00226105
0.00236309
0.00247427
0.00259532
0.00272707
0.0028704
0.00302628
0.00319574
0.00337995
0.00358015
0.00379767
0.00403399
0.00429067
0.00456945
0.00487215
0.00520078
0.00555747
0.00594455
0.0063645
0.00681998
0.00731385
0.00784918
0.00842924
0.00905754
0.00973782
0.0104741
0.0112705
0.0121318
0.0130625
0.014068
0.0151536
0.0163252
0.0175888
0.0189509
0.0204186
0.0219993
0.0237005
0.0255309
0.0274992
0.0296148
0.0318879
0.0343294
0.0369507
0.0397648
0.0427843
0.0460241
0.0494999
0.0532294
0.0572308
0.0615245
0.0661333
0.0710823
0.0764006
0.082119
0.0882727
0.0949015
0.102053
0.10978
0.118143
0.127215
0.137081
0.147844
0.159621
0.172556
0.186828
0.202644
0.220262
0.239995
0.262213
0.28734
0.315931
0.348476
0.385914
0.428468
0.477472
0.531281
0.589172
0.642356
0.00141834
0.00142046
0.00142577
0.00143428
0.00144574
0.00146016
0.0014777
0.00149852
0.00152277
0.0015506
0.00158221
0.00161781
0.00165764
0.00170197
0.0017511
0.00180535
0.00186508
0.00193069
0.00200262
0.00208135
0.00216739
0.00226133
0.00236379
0.00247548
0.00259714
0.0027296
0.00287376
0.0030306
0.00320119
0.00338668
0.00358834
0.00380754
0.00404575
0.00430458
0.00458576
0.00489117
0.00522282
0.00558289
0.00597372
0.00639782
0.00685789
0.00735683
0.00789774
0.00848393
0.00911895
0.00980658
0.0105508
0.0113561
0.0122268
0.0131679
0.0141846
0.0152825
0.0164673
0.0177452
0.0191229
0.0206075
0.0222064
0.0239275
0.0257792
0.0277709
0.0299118
0.0322122
0.0346834
0.0373373
0.0401867
0.0432447
0.0465263
0.050048
0.0538282
0.0578859
0.0622413
0.0669176
0.0719414
0.0773434
0.0831549
0.0894124
0.0961584
0.10344
0.111315
0.119848
0.129115
0.139202
0.15022
0.162297
0.175584
0.190267
0.206578
0.2248
0.245267
0.268383
0.294645
0.324648
0.358998
0.3986
0.443879
0.495747
0.551995
0.610265
0.651418
0.0014165
0.0014186
0.00142389
0.00143238
0.00144381
0.0014582
0.0014757
0.00149649
0.0015207
0.00154849
0.00158006
0.00161563
0.00165543
0.00169974
0.00174886
0.00180312
0.00186288
0.00192855
0.00200056
0.00207941
0.00216562
0.00225978
0.00236253
0.00247456
0.00259665
0.00272964
0.00287443
0.00303201
0.00320347
0.00338998
0.00359283
0.00381339
0.00405316
0.00431378
0.00459699
0.0049047
0.00523893
0.00560191
0.00599598
0.0064237
0.00688779
0.00739119
0.00793702
0.00852864
0.00916964
0.00986383
0.0106153
0.0114284
0.0123078
0.0132583
0.0142853
0.0153943
0.0165911
0.0178823
0.0192744
0.0207745
0.0223902
0.0241297
0.0260015
0.0280147
0.0301792
0.0325056
0.0350048
0.0376892
0.0405716
0.0436661
0.0469881
0.0505538
0.0543816
0.0584915
0.0629052
0.0676464
0.072742
0.078223
0.0841224
0.0904791
0.097335
0.104741
0.112756
0.121446
0.130891
0.141184
0.152442
0.164794
0.1784
0.193458
0.210213
0.228957
0.25004
0.273897
0.301047
0.332096
0.367686
0.408589
0.45501
0.507348
0.561803
0.614314
0.64372
0.00141405
0.0014161
0.00142135
0.0014298
0.00144118
0.00145551
0.00147295
0.00149368
0.00151781
0.00154552
0.00157701
0.00161249
0.00165221
0.00169644
0.00174548
0.00179967
0.00185938
0.00192501
0.00199701
0.00207587
0.00216213
0.00225638
0.00235926
0.00247149
0.00259384
0.00272716
0.00287236
0.00303047
0.00320256
0.00338983
0.00359357
0.00381519
0.0040562
0.00431824
0.0046031
0.00491268
0.00524906
0.00561445
0.00601126
0.00644205
0.00690958
0.00741681
0.00796691
0.00856327
0.0092095
0.00990947
0.0106673
0.0114874
0.0123744
0.0133334
0.0143696
0.0154887
0.0166965
0.0179998
0.0194049
0.0209192
0.0225505
0.024307
0.0261972
0.0282306
0.0304171
0.0327675
0.0352928
0.0380058
0.0409194
0.044048
0.0474079
0.0510152
0.0548883
0.0590476
0.0635162
0.0683187
0.0734819
0.0790374
0.0850198
0.0914697
0.0984299
0.105953
0.114099
0.122937
0.132549
0.143032
0.154506
0.167105
0.180998
0.196384
0.213517
0.2327
0.254291
0.278732
0.30652
0.33826
0.374512
0.415863
0.462078
0.512951
0.563042
0.608781
0.623266
0.00141097
0.00141295
0.00141814
0.00142654
0.00143785
0.00145209
0.00146944
0.00149007
0.00151409
0.00154168
0.00157304
0.00160839
0.00164797
0.00169205
0.00174095
0.001795
0.00185457
0.00192007
0.00199196
0.00207072
0.0021569
0.0022511
0.00235397
0.00246623
0.00258867
0.00272213
0.00286754
0.00302594
0.00319841
0.00338617
0.00359053
0.00381289
0.00405479
0.0043179
0.00460401
0.00491505
0.00525311
0.00562044
0.00601946
0.00645277
0.00692314
0.00743359
0.00798729
0.00858767
0.00923839
0.00994335
0.0107067
0.0115329
0.0124267
0.0133931
0.0144375
0.0155655
0.0167833
0.0180973
0.0195143
0.0210416
0.0226871
0.024459
0.0263662
0.028418
0.0306248
0.0329972
0.0355468
0.0382863
0.041229
0.0443895
0.047784
0.0514297
0.0553457
0.0595523
0.0640727
0.0689326
0.0741591
0.0797846
0.0858452
0.0923812
0.0994389
0.10707
0.115337
0.124313
0.13408
0.144736
0.156403
0.169225
0.183371
0.199038
0.216487
0.236029
0.258017
0.282876
0.311068
0.343125
0.379496
0.42053
0.465467
0.513593
0.557665
0.596597
0.593893
0.00140726
0.00140916
0.00141427
0.00142259
0.00143381
0.00144794
0.00146518
0.00148567
0.00150955
0.00153697
0.00156816
0.00160332
0.0016427
0.00168658
0.00173527
0.0017891
0.00184845
0.00191373
0.00198539
0.00206394
0.00214992
0.00224394
0.00234665
0.00245878
0.00258111
0.00271452
0.00285994
0.00301839
0.003191
0.00337898
0.00358365
0.00380644
0.0040489
0.00431269
0.00459965
0.00491172
0.00525101
0.00561979
0.0060205
0.00645576
0.00692839
0.00744141
0.00799803
0.00860172
0.00925618
0.00996532
0.0107334
0.0115648
0.0124644
0.0134372
0.0144887
0.0156246
0.016851
0.0181745
0.019602
0.021141
0.0227992
0.0245851
0.0265075
0.0285761
0.0308012
0.033194
0.035766
0.0385301
0.0414998
0.0446899
0.0481172
0.0517987
0.0557537
0.0600039
0.0645729
0.0694863
0.074772
0.0804627
0.086596
0.093213
0.10036
0.108091
0.116468
0.125567
0.135473
0.146284
0.158127
0.171144
0.185502
0.201409
0.219118
0.238936
0.261191
0.286291
0.314663
0.34673
0.382742
0.422835
0.465579
0.510074
0.547021
0.579383
0.560913
0.00140293
0.00140472
0.00140974
0.00141797
0.00142907
0.00144307
0.00146015
0.00148048
0.00150417
0.0015314
0.00156236
0.00159728
0.00163641
0.00168002
0.00172842
0.00178196
0.001841
0.00190596
0.0019773
0.00205553
0.00214118
0.00223488
0.00233728
0.00244911
0.00257116
0.00270432
0.00284952
0.0030078
0.00318029
0.00336821
0.0035729
0.00379579
0.00403845
0.00430257
0.00458997
0.00490264
0.00524269
0.00561242
0.00601429
0.00645094
0.00692521
0.00744015
0.00799901
0.00860528
0.00926269
0.00997519
0.010747
0.0115828
0.0124872
0.0134654
0.014523
0.0156656
0.0168995
0.0182313
0.019668
0.0212171
0.0228864
0.0246847
0.026621
0.0287048
0.0309466
0.0333576
0.0359496
0.038736
0.0417303
0.0449476
0.048405
0.0521197
0.0561111
0.0604018
0.065015
0.0699769
0.0753165
0.0810672
0.0872675
0.0939581
0.101186
0.109009
0.117488
0.126699
0.136729
0.147678
0.15967
0.172848
0.187381
0.203477
0.22138
0.241384
0.263788
0.288964
0.317268
0.349041
0.384259
0.422829
0.462666
0.502987
0.532436
0.558894
0.526668
0.00139798
0.00139964
0.00140455
0.00141266
0.00142362
0.00143746
0.00145437
0.0014745
0.00149797
0.00152496
0.00155565
0.00159028
0.0016291
0.00167238
0.00172042
0.00177358
0.00183223
0.00189678
0.00196769
0.00204547
0.00213067
0.0022239
0.00232583
0.00243719
0.00255879
0.00269149
0.00283626
0.00299413
0.00316624
0.00335382
0.00355822
0.00378089
0.0040234
0.00428745
0.0045749
0.00488772
0.00522806
0.00559824
0.00600072
0.00643818
0.00691348
0.00742969
0.00799009
0.00859819
0.00925775
0.00997279
0.0107476
0.0115867
0.0124949
0.0134775
0.0145399
0.0156882
0.0169284
0.0182672
0.0197117
0.0212695
0.0229487
0.0247577
0.026706
0.0288031
0.0310597
0.0334871
0.0360974
0.0389035
0.0419199
0.0451619
0.0486458
0.0523902
0.0564151
0.0607423
0.0653957
0.0704022
0.0757913
0.0815975
0.0878578
0.0946147
0.101917
0.109821
0.11839
0.1277
0.137837
0.148906
0.161022
0.174331
0.189001
0.205233
0.223254
0.243342
0.265784
0.29089
0.318896
0.350046
0.384075
0.420672
0.457126
0.493074
0.515059
0.53628
0.492366
0.0013924
0.00139392
0.0013987
0.00140669
0.00141749
0.00143114
0.00144784
0.00146774
0.00149095
0.00151765
0.00154803
0.00158231
0.00162076
0.00166364
0.00171126
0.00176396
0.00182212
0.00188616
0.00195654
0.00203375
0.00211837
0.00221099
0.0023123
0.00242302
0.00254397
0.00267602
0.00282012
0.00297734
0.00314881
0.00333578
0.00353958
0.00376169
0.00400369
0.0042673
0.00455436
0.0048669
0.00520705
0.00557715
0.0059797
0.00641739
0.00689308
0.00740989
0.00797112
0.0085803
0.00924122
0.00995792
0.0107347
0.0115762
0.0124873
0.0134732
0.0145394
0.015692
0.0169372
0.0182817
0.0197326
0.0212977
0.0229851
0.0248034
0.0267618
0.0288703
0.0311397
0.0335815
0.0362078
0.0390314
0.0420673
0.0453313
0.0488394
0.0526102
0.0566647
0.0610247
0.0657141
0.0707611
0.076195
0.0820502
0.0883641
0.0951797
0.102548
0.110523
0.11917
0.128561
0.138789
0.149954
0.162169
0.175577
0.190343
0.206654
0.224725
0.244805
0.267154
0.292019
0.319542
0.349817
0.382315
0.41663
0.449399
0.480937
0.495669
0.512266
0.458784
0.00138621
0.00138756
0.00139219
0.00140003
0.00141065
0.00142409
0.00144056
0.00146019
0.0014831
0.00150946
0.00153948
0.00157338
0.0016114
0.00165381
0.00170093
0.0017531
0.00181068
0.00187411
0.00194384
0.00202038
0.00210427
0.00219615
0.00229667
0.00240658
0.00252669
0.00265787
0.0028011
0.00295742
0.00312798
0.00331403
0.00351693
0.00373814
0.00397927
0.00424204
0.0045283
0.00484009
0.00517957
0.00554908
0.00595113
0.00638844
0.0068639
0.00738063
0.00794196
0.00855145