/*--------------------------------*- C++ -*----------------------------------*\
  =========                 |
  \\      /  F ield         | OpenFOAM: The Open Source CFD Toolbox
   \\    /   O peration     | Website:  https://openfoam.org
    \\  /    A nd           | Version:  9
     \\/     M anipulation  |
\*---------------------------------------------------------------------------*/
FoamFile
{
    format      ascii;
    class       surfaceScalarField;
    location    "1500";
    object      phi;
}
// * * * * * * * * * * * * * * * * * * * * * * * * * * * * * * * * * * * * * //

dimensions      [0 3 -1 0 0 0 0];

internalField   nonuniform List<scalar> 
26626
(
-0.377066
0.169216
-0.366804
-0.345537
0.175331
-0.356198
0.16531
-0.335517
0.155911
-0.316215
0.146995
-0.298017
-0.280992
0.181273
-0.345211
0.170942
-0.325186
0.161163
-0.306436
0.152005
-0.28886
0.143366
-0.272352
-0.25681
0.187042
-0.333879
0.176366
-0.314509
0.166311
-0.296381
0.156842
-0.279391
0.147926
-0.263436
0.139494
-0.248378
-0.234286
0.19257
-0.322201
0.181617
-0.303556
0.171286
-0.28605
0.161541
-0.269647
0.152314
-0.254209
0.143675
-0.239738
0.135484
-0.226095
0.127777
-0.213246
0.120516
-0.201153
0.113662
-0.189757
0.107198
-0.17901
0.101101
-0.168877
0.0953463
-0.159318
0.089923
-0.150304
0.0848037
-0.141795
0.0799747
-0.133776
0.0754187
-0.126203
0.0711184
-0.119065
0.0670669
-0.112331
0.06324
-0.10597
0.0596342
-0.0999794
0.0562289
-0.0943203
0.0530171
-0.088986
0.0499849
-0.0839489
0.0471255
-0.0792022
0.0444319
-0.0747251
0.0418869
-0.0704935
0.039487
-0.0665108
0.0372218
-0.0627493
0.0350844
-0.0592023
-0.0558524
0.197994
-0.310247
0.186696
-0.292258
0.176053
-0.275407
0.166032
-0.259626
0.156598
-0.244775
0.147682
-0.230822
0.139285
-0.217697
0.13136
-0.205321
0.123895
-0.193688
0.116851
-0.182713
0.110205
-0.172363
0.103938
-0.162611
0.0980243
-0.153404
0.0924455
-0.144726
0.0871846
-0.136534
0.0822208
-0.128812
0.0775404
-0.121522
0.0731226
-0.114647
0.0689502
-0.108159
0.065023
-0.102043
0.0613101
-0.0962666
0.0578115
-0.0908216
0.0545098
-0.0856843
0.0513981
-0.0808372
0.0484592
-0.0762633
0.0456827
-0.0719486
0.043072
-0.0678828
0.040603
-0.0640417
0.0382756
-0.0604219
0.036076
-0.0570027
0.0340076
-0.053784
0.0320498
-0.0507417
-0.0478758
0.00218077
-0.00456101
0.00201848
-0.00431707
0.00186491
-0.0040875
0.00172023
-0.00387211
0.00158353
-0.00366953
0.00145441
-0.00347964
0.00133217
-0.00330187
0.00121699
-0.00313584
0.00110821
-0.00298043
0.00100524
-0.0028364
0.000907984
-0.00270242
0.000815697
-0.00257837
0.000728484
-0.00246469
0.000646007
-0.00236115
0.000567978
-0.00226647
0.00049341
-0.00218274
0.000422731
-0.00210872
0.0003556
-0.00204767
0.00029208
-0.00199641
0.000231316
-0.00196379
0.00017442
-0.00193925
0.000122703
-0.00194262
7.72673e-05
-0.00194971
4.17889e-05
-0.00197048
8.3316e-06
-0.00205272
-0.00174622
0.203142
-0.297947
0.191567
-0.280683
0.180648
-0.264488
0.170386
-0.249363
0.160675
-0.235065
0.151552
-0.221699
0.142912
-0.209058
0.134808
-0.197217
0.127146
-0.186025
0.119916
-0.175483
0.1131
-0.165548
0.106668
-0.156179
0.100602
-0.147338
0.0948781
-0.139002
0.089479
-0.131135
0.0843839
-0.123717
0.0795791
-0.116718
0.0750473
-0.110115
0.0707712
-0.103882
0.0667335
-0.0980055
0.0629308
-0.0924638
0.0593388
-0.0872297
0.0559507
-0.0822962
0.0527526
-0.0776392
0.0497377
-0.0732483
0.0468955
-0.0691064
0.0442087
-0.0651961
0.0416775
-0.0615105
0.0392879
-0.0580323
0.0370364
-0.0547512
0.0349093
-0.0516569
0.0329031
-0.0487355
0.0310108
-0.0459836
-0.0433838
0.00243417
-0.00463365
0.00225775
-0.00438459
0.00209127
-0.00415059
0.00193398
-0.0039302
0.00178533
-0.00372346
0.00164527
-0.00352947
0.00151274
-0.0033471
0.00138762
-0.00317676
0.00126926
-0.00301747
0.00115755
-0.00286872
0.00105189
-0.00273074
0.000951978
-0.00260251
0.000857594
-0.00248399
0.000768365
-0.00237546
0.00068286
-0.00227565
0.000602305
-0.00218592
0.000525846
-0.00210628
0.000452505
-0.00203538
0.00038261
-0.00197778
0.000315263
-0.00192906
0.000252112
-0.00190064
0.000191552
-0.00187869
0.000136873
-0.00188794
8.61353e-05
-0.00189898
4.65634e-05
-0.00193091
1.09255e-05
-0.00201708
-0.0017353
0.208117
-0.285372
0.196266
-0.268832
0.185105
-0.253328
0.174532
-0.238789
0.164649
-0.225182
0.155249
-0.2123
0.146454
-0.200263
0.138122
-0.188885
0.13027
-0.178173
0.122867
-0.16808
0.115882
-0.158563
0.109291
-0.149588
0.103076
-0.141124
0.097214
-0.13314
0.0916836
-0.125605
0.0864641
-0.118498
0.0815419
-0.111795
0.076896
-0.105469
0.0725162
-0.0995026
0.0683852
-0.0938745
0.0644822
-0.0885609
0.0608073
-0.0835547
0.0573363
-0.0788251
0.0540622
-0.0743651
0.0509712
-0.0701573
0.0480564
-0.0661916
0.0453075
-0.0624471
0.042714
-0.058917
0.0402656
-0.0555839
0.0379588
-0.0524445
0.0357764
-0.0494745
0.0337218
-0.0466809
0.0317812
-0.0440429
0.0299545
-0.0415572
0.028228
-0.0392063
-0.0369937
0.00270536
-0.00469506
0.0025138
-0.00444208
0.00233335
-0.00420414
0.00216279
-0.00398003
0.00200177
-0.00376919
0.00184983
-0.00357152
0.00170602
-0.00338566
0.00157065
-0.00321174
0.00144247
-0.00304857
0.0013216
-0.0028966
0.00120687
-0.00275399
0.00109885
-0.00262273
0.000996012
-0.00249967
0.000899131
-0.00238711
0.000807467
-0.0022838
0.000720678
-0.00218886
0.000637841
-0.00210308
0.000559011
-0.00202745
0.000483274
-0.00195964
0.000410831
-0.00190533
0.000341584
-0.00185982
0.000274429
-0.00183349
0.000211409
-0.00181567
0.000151707
-0.00182824
9.66315e-05
-0.0018439
5.38819e-05
-0.00188816
1.15786e-05
-0.00197477
-0.00172372
0.21285
-0.272485
0.200722
-0.256705
0.18932
-0.241925
0.178574
-0.228043
0.16838
-0.214988
0.158842
-0.202762
0.149805
-0.191226
0.14129
-0.18037
0.133262
-0.170145
0.125686
-0.160504
0.118546
-0.151422
0.111806
-0.142848
0.10545
-0.134767
0.0994496
-0.127139
0.0937949
-0.11995
0.088458
-0.113161
0.0834216
-0.106759
0.0786721
-0.10072
0.0741921
-0.0950226
0.0699644
-0.0896467
0.065975
-0.0845715
0.0622102
-0.07979
0.0586597
-0.0752746
0.055313
-0.0710184
0.0521529
-0.0669972
0.0491724
-0.0632111
0.0463613
-0.0596359
0.0437056
-0.0562613
0.0412053
-0.0530837
0.0388398
-0.050079
0.0366159
-0.0472506
0.0345129
-0.0445779
0.0325273
-0.0420574
0.0306557
-0.0396856
0.0288912
-0.0374417
0.0272233
-0.0353259
-0.0333346
0.00452382
-0.00664737
0.00423077
-0.00628165
0.00395383
-0.00593657
0.00369302
-0.00561183
0.00344633
-0.00530494
0.00321426
-0.00501663
0.00299478
-0.0047444
0.00278755
-0.00448783
0.00259181
-0.00424634
0.00240716
-0.0040195
0.0022329
-0.00380577
0.0020685
-0.0036048
0.00191309
-0.00341611
0.00176633
-0.00323889
0.00162736
-0.00307277
0.00149635
-0.00291755
0.00137252
-0.00277278
0.00125602
-0.00263749
0.0011448
-0.00251151
0.00104042
-0.00239529
0.000941235
-0.00228792
0.00084684
-0.0021894
0.000757742
-0.00209976
0.000672567
-0.00201791
0.000591489
-0.00194637
0.000514841
-0.00188299
0.000440005
-0.0018305
0.000368192
-0.001788
0.00029912
-0.00176441
0.000231871
-0.00174842
0.000168323
-0.00176469
0.000108967
-0.00178454
5.93944e-05
-0.00183859
1.40304e-05
-0.00192941
-0.00170969
0.217445
-0.259356
0.205041
-0.244301
0.193362
-0.230247
0.182374
-0.217055
0.172015
-0.204629
0.162232
-0.192979
0.153012
-0.182006
0.144317
-0.171675
0.136119
-0.161948
0.128385
-0.152769
0.121089
-0.144126
0.114208
-0.135967
0.107713
-0.128273
0.101592
-0.121018
0.0958094
-0.114167
0.0903619
-0.107713
0.0852185
-0.101616
0.0803688
-0.0958701
0.0757885
-0.0904424
0.0714709
-0.0853291
0.0673986
-0.0804992
0.0635544
-0.0759457
0.0599313
-0.0716515
0.0565085
-0.0675957
0.0532827
-0.0637714
0.0502366
-0.060165
0.0473632
-0.0567626
0.0446557
-0.0535537
0.0420967
-0.0505247
0.0396862
-0.0476685
0.0374105
-0.0449749
0.0352625
-0.04243
0.0332389
-0.0400338
0.0313258
-0.0377725
0.0295233
-0.0356392
0.0278243
-0.0336269
0.0262151
-0.0317254
0.0247026
-0.029938
-0.0282475
0.00495654
-0.00669938
0.0046396
-0.00633043
0.00434067
-0.00598272
0.0040585
-0.0056544
0.00379205
-0.00534538
0.00354058
-0.00505347
0.00330305
-0.00477911
0.00307884
-0.00452018
0.00286761
-0.0042766
0.00266819
-0.00404692
0.00247955
-0.00383085
0.00230144
-0.00362766
0.00213362
-0.00343698
0.00197461
-0.00325709
0.00182502
-0.00308931
0.00168359
-0.00293134
0.00155017
-0.00278413
0.00142336
-0.00264597
0.00130364
-0.00251776
0.00119077
-0.00239864
0.00108404
-0.00228856
0.000982688
-0.00218656
0.000886571
-0.00209328
0.000794876
-0.00200807
0.000708836
-0.00193187
0.000625665
-0.0018632
0.000546178
-0.00180351
0.000469916
-0.00175424
0.000396675
-0.00171476
0.000324095
-0.00169183
0.000252744
-0.00167707
0.000186692
-0.00169864
0.00012183
-0.00171968
6.89099e-05
-0.00178567
1.54986e-05
-0.001876
-0.00169419
0.221729
-0.245951
0.209118
-0.23169
0.197232
-0.218361
0.185998
-0.205821
0.175435
-0.194065
0.165466
-0.18301
0.156066
-0.172606
0.147202
-0.162811
0.138839
-0.153584
0.130952
-0.144883
0.123511
-0.136685
0.116492
-0.128947
0.109869
-0.121651
0.103624
-0.114772
0.0977341
-0.108277
0.0921726
-0.102152
0.0869289
-0.096372
0.081979
-0.0909201
0.0773124
-0.0857758
0.0729084
-0.0809251
0.0687532
-0.076344
0.0648363
-0.0720289
0.0611372
-0.0679523
0.0576488
-0.0641073
0.0543573
-0.06048
0.0512524
-0.0570601
0.0483237
-0.0538339
0.0455609
-0.0507908
0.0429535
-0.0479173
0.0404912
-0.0452062
0.0381705
-0.0426542
0.0359811
-0.0402405
0.033916
-0.0379687
0.0319649
-0.0358214
0.0301277
-0.033802
0.0283908
-0.0318899
0.0267574
-0.030092
0.0252103
-0.0283909
0.023753
-0.0267902
0.0223785
-0.0252794
-0.023855
0.00745981
-0.00894695
0.00700289
-0.00845005
0.00657152
-0.00798107
0.00616437
-0.00753865
0.00578003
-0.00712147
0.00541713
-0.00672809
0.00507528
-0.00635753
0.00475223
-0.00600738
0.00444713
-0.00567762
0.00415932
-0.00536659
0.00388754
-0.0050736
0.0036313
-0.00479724
0.00338955
-0.00453735
0.00316115
-0.00429178
0.00294533
-0.00406078
0.00274177
-0.00384337
0.00254996
-0.00363904
0.00236853
-0.00344623
0.00219707
-0.00326552
0.00203571
-0.00309574
0.00188266
-0.00293626
0.00173851
-0.0027872
0.00160202
-0.00264763
0.00147322
-0.00251717
0.00135149
-0.00239603
0.00123607
-0.00228323
0.00112681
-0.00217931
0.0010233
-0.00208305
0.000925656
-0.00199564
0.000832483
-0.00191489
0.000743827
-0.00184321
0.000659338
-0.00177871
0.000577873
-0.00172204
0.000500389
-0.00167675
0.000423214
-0.00163759
0.00034912
-0.00161774
0.000277162
-0.00160511
0.000205515
-0.00162699
0.00013527
-0.00164944
7.77864e-05
-0.00172818
1.73905e-05
-0.0018156
-0.0016768
0.22584
-0.232304
0.212987
-0.218837
0.20087
-0.206243
0.189453
-0.194405
0.17869
-0.183301
0.168537
-0.172857
0.158965
-0.163034
0.149935
-0.153781
0.14142
-0.145069
0.133388
-0.136851
0.125809
-0.129106
0.118661
-0.1218
0.111918
-0.114908
0.105555
-0.108409
0.0995516
-0.102274
0.0938899
-0.0964903
0.0885495
-0.0910316
0.0835132
-0.0858838
0.0787602
-0.0810228
0.0742733
-0.0764382
0.070042
-0.0721127
0.0660492
-0.068036
0.0622809
-0.064184
0.0587303
-0.0605567
0.05538
-0.0571298
0.0522164
-0.0538965
0.0492324
-0.0508499
0.0464177
-0.0479761
0.0437619
-0.0452615
0.0412581
-0.0427024
0.0388925
-0.0402886
0.036665
-0.0380131
0.0345585
-0.0358621
0.0325763
-0.0338392
0.0307011
-0.0319269
0.028933
-0.0301218
0.0272651
-0.028424
0.0256938
-0.0268196
0.0242089
-0.0253052
0.0228102
-0.0238807
0.0214875
-0.0225324
0.0202408
-0.0212636
0.0190642
-0.0200664
0.0179541
-0.0189366
-0.0178712
0.007617
-0.00845414
0.00715146
-0.00798452
0.00671219
-0.0075418
0.00629787
-0.00712433
0.00590665
-0.00673025
0.00553759
-0.00635904
0.00518865
-0.00600858
0.0048597
-0.00567844
0.00454944
-0.00536735
0.00425655
-0.00507371
0.00397993
-0.00479697
0.00371927
-0.00453659
0.00347243
-0.00429051
0.00324001
-0.00405936
0.00302068
-0.00384145
0.00281353
-0.00363622
0.00261759
-0.0034431
0.00243316
-0.0032618
0.00225904
-0.0030914
0.00209429
-0.00293099
0.00193879
-0.00278075
0.00179196
-0.00264037
0.00165302
-0.00250869
0.00152192
-0.00238607
0.00139768
-0.0022718
0.00128051
-0.00216605
0.00116923
-0.00206804
0.00106422
-0.00197803
0.00096372
-0.00189514
0.000869167
-0.00182034
0.000778664
-0.00175271
0.000692284
-0.00169233
0.000610411
-0.00164017
0.000529486
-0.00159583
0.000452967
-0.00156107
0.000375937
-0.00154071
0.000300489
-0.00152966
0.000225736
-0.00155224
0.00015297
-0.00157667
8.69178e-05
-0.00166213
2.33592e-05
-0.00175204
-0.00165344
0.229744
-0.21845
0.216656
-0.20575
0.204325
-0.193912
0.192711
-0.182792
0.181761
-0.172351
0.171439
-0.162535
0.161701
-0.153296
0.152519
-0.144599
0.143856
-0.136405
0.135686
-0.128681
0.127979
-0.121399
0.120707
-0.114528
0.11385
-0.108051
0.10738
-0.101939
0.101276
-0.0961698
0.0955174
-0.0907319
0.0900837
-0.085598
0.0849576
-0.0807577
0.0801217
-0.0761869
0.0755621
-0.0718786
0.0712583
-0.0678089
0.0671963
-0.0639741
0.0633693
-0.060357
0.059753
-0.0569404
0.056344
-0.0537208
0.0531285
-0.050681
0.0500927
-0.047814
0.0472296
-0.045113
0.0445289
-0.0425607
0.0419801
-0.0401537
0.0395765
-0.0378849
0.0373076
-0.0357442
0.0351699
-0.0337245
0.0331496
-0.0318189
0.0312434
-0.0300206
0.0294476
-0.0283261
0.027752
-0.0267284
0.0261497
-0.0252173
0.024644
-0.0237995
0.0232177
-0.0224545
0.0218733
-0.0211879
0.0206051
-0.0199954
0.0194084
-0.0188697
0.0182791
-0.0178073
0.0172139
-0.0168061
0.0162088
-0.0158613
-0.01497
0.00776685
-0.00795272
0.00729342
-0.00751109
0.00684661
-0.00709499
0.00642502
-0.00670273
0.00602731
-0.00633254
0.00565176
-0.00598349
0.00529761
-0.00565442
0.00496318
-0.00534401
0.00464716
-0.00505134
0.00434946
-0.004776
0.00406832
-0.00451584
0.00380281
-0.00427107
0.00355255
-0.00404025
0.00331595
-0.00382276
0.00309292
-0.00361843
0.00288228
-0.00342557
0.00268355
-0.00324437
0.00249581
-0.00307407
0.00231819
-0.00291378
0.00215098
-0.00276378
0.00199304
-0.00262281
0.00184354
-0.00249087
0.00170252
-0.00236767
0.00156924
-0.00225279
0.00144296
-0.00214552
0.00132345
-0.00204654
0.00121066
-0.00195524
0.00110341
-0.00187078
0.00100204
-0.00179378
0.000905242
-0.00172354
0.000813608
-0.00166107
0.000725627
-0.00160435
0.00064127
-0.00155581
0.000560237
-0.00151479
0.000481128
-0.00148196
0.000403252
-0.00146283
0.000325732
-0.00145214
0.000248466
-0.00147497
0.000169565
-0.00149777
0.000100261
-0.00159283
2.57872e-05
-0.00167757
-0.00162765
0.233351
-0.204334
0.220083
-0.192482
0.207569
-0.181397
0.195772
-0.170995
0.184653
-0.161232
0.174162
-0.152044
0.164275
-0.14341
0.154948
-0.135272
0.14615
-0.127607
0.137849
-0.12038
0.130021
-0.113571
0.122635
-0.107142
0.115667
-0.101083
0.109094
-0.0953655
0.102896
-0.0899726
0.0970447
-0.0848802
0.0915281
-0.0800814
0.086319
-0.0755486
0.0814105
-0.0712784
0.076775
-0.0672431
0.072402
-0.0634359
0.0682778
-0.0598499
0.0643851
-0.0564643
0.060717
-0.0532723
0.0572527
-0.0502565
0.0539854
-0.0474136
0.0509046
-0.0447332
0.0479931
-0.0422015
0.0452509
-0.0398185
0.0426641
-0.0375669
0.040219
-0.0354398
0.0379155
-0.0334407
0.0357398
-0.0315488
0.0336885
-0.0297676
0.0317545
-0.0280867
0.0299311
-0.0265027
0.0282079
-0.0250052
0.0265848
-0.0235942
0.025048
-0.0222627
0.0236007
-0.0210071
0.0222369
-0.0198241
0.0209487
-0.0187072
0.0197333
-0.0176543
0.0185867
-0.0166606
0.0175043
-0.0157236
0.0164829
-0.0148399
0.0155196
-0.0140067
0.0146101
-0.0132202
0.0137524
-0.0124793
0.0129427
-0.0117796
0.0121788
-0.0111206
0.0114578
-0.0104983
0.0107776
-0.009912
0.0101353
-0.00935846
0.00952924
-0.00883702
0.00895742
-0.00834501
0.00841768
-0.0078809
0.00790838
-0.00744342
0.00742776
-0.00703047
0.00697443
-0.00664166
0.00654597
-0.00627427
0.00614213
-0.0059287
0.00576066
-0.00560203
0.0054007
-0.00529446
0.00506121
-0.00500451
0.00474073
-0.00473086
0.00443821
-0.00447348
0.00415269
-0.00423032
0.00388312
-0.00400151
0.0036288
-0.00378592
0.00338889
-0.00358285
0.00316191
-0.00339145
0.00294803
-0.00321169
0.00274619
-0.00304253
0.00255566
-0.00288353
0.00237557
-0.00273369
0.0022056
-0.00259381
0.002045
-0.00246221
0.00189341
-0.00233928
0.00175024
-0.0022245
0.00161467
-0.00211722
0.00148676
-0.00201761
0.00136546
-0.00192525
0.00125054
-0.00184031
0.00114152
-0.00176177
0.00103845
-0.0016907
0.00094052
-0.00162562
0.000846729
-0.00156728
0.000757663
-0.00151529
0.00067176
-0.00146991
0.00058987
-0.0014329
0.000509192
-0.00140128
0.000430699
-0.00138434
0.00035149
-0.00137293
0.00027093
-0.00139441
0.000190409
-0.00141725
0.000112546
-0.00151497
3.36761e-05
-0.0015987
-0.00159398
0.236774
-0.190024
0.223303
-0.179011
0.210606
-0.1687
0.19864
-0.15903
0.187351
-0.149943
0.176715
-0.141408
0.16668
-0.133374
0.157218
-0.12581
0.148292
-0.11868
0.139873
-0.111962
0.131928
-0.105626
0.124439
-0.0996531
0.117371
-0.0940152
0.110704
-0.0886984
0.10441
-0.0836786
0.0984752
-0.0789455
0.0928757
-0.0744819
0.0875941
-0.0702669
0.0826095
-0.0662938
0.0779083
-0.0625419
0.0734766
-0.0590042
0.0692902
-0.0556635
0.0653422
-0.0525163
0.0616154
-0.0495454
0.0581027
-0.0467439
0.0547904
-0.0441014
0.0516612
-0.0416041
0.0487117
-0.039252
0.045928
-0.0370348
0.0432998
-0.0349387
0.0408235
-0.0329636
0.0384855
-0.0311026
0.0362821
-0.0293454
0.0341996
-0.0276851
0.0322381
-0.0261251
0.0303836
-0.0246482
0.0286361
-0.0232577
0.0269854
-0.0219434
0.0254302
-0.0207076
0.0239632
-0.0195401
0.022578
-0.0184389
0.0212715
-0.0174007
0.0200378
-0.0164207
0.0188746
-0.0154974
0.0177767
-0.0146257
0.0167408
-0.0138041
0.015763
-0.0130289
0.0148411
-0.0122983
0.0139703
-0.0116085
0.0131492
-0.0109585
0.012374
-0.0103454
0.0116426
-0.009767
0.0109524
-0.00922172
0.0103011
-0.00870722
0.00968651
-0.00822241
0.00910641
-0.00776491
0.0085588
-0.00733329
0.00804227
-0.00692689
0.00755476
-0.00654296
0.00709457
-0.00618147
0.00666033
-0.00584003
0.00625025
-0.00551862
0.00586372
-0.00521551
0.00549865
-0.00492938
0.00515396
-0.00465983
0.00482903
-0.00440593
0.00452205
-0.0041665
0.00423247
-0.00394074
0.00395909
-0.00372812
0.00370117
-0.003528
0.00345763
-0.00333931
0.00322791
-0.00316173
0.00301094
-0.00299472
0.00280615
-0.00283774
0.00261268
-0.00269006
0.00243035
-0.00255137
0.00225789
-0.00242134
0.00209499
-0.00229931
0.00194115
-0.00218544
0.00179571
-0.00207906
0.00165828
-0.00197979
0.00152826
-0.00188759
0.00140549
-0.00180247
0.00128891
-0.00172373
0.0011787
-0.00165155
0.00107369
-0.00158569
0.000974213
-0.00152614
0.000879437
-0.0014725
0.000789506
-0.00142536
0.000702921
-0.00138332
0.000618923
-0.00134891
0.000536843
-0.0013192
0.000456942
-0.00130444
0.000377302
-0.00129329
0.000296547
-0.00131366
0.000209502
-0.0013302
0.000127599
-0.00143306
3.85704e-05
-0.00150967
-0.00155541
0.239942
-0.17553
0.226292
-0.165361
0.213428
-0.155836
0.2013
-0.146902
0.18987
-0.138512
0.179089
-0.130627
0.168922
-0.123208
0.159329
-0.116217
0.150286
-0.109637
0.141756
-0.103432
0.133708
-0.0975771
0.126115
-0.0920602
0.11895
-0.0868506
0.112193
-0.0819415
0.10582
-0.0773052
0.099809
-0.0729348
0.0941335
-0.0688063
0.0887827
-0.0649162
0.0837291
-0.0612402
0.0789657
-0.0577785
0.0744718
-0.0545103
0.0702335
-0.0514252
0.0662337
-0.0485164
0.0624584
-0.0457701
0.0588974
-0.0431828
0.0555367
-0.0407407
0.0523695
-0.0384369
0.0493785
-0.036261
0.0465568
-0.0342131
0.0438939
-0.0322758
0.0413866
-0.0304562
0.0390174
-0.0287334
0.0367795
-0.0271075
0.0346728
-0.0255784
0.0326801
-0.0241324
0.0308049
-0.0227729
0.0290332
-0.0214861
0.0273641
-0.0202743
0.0257873
-0.0191308
0.0242998
-0.0180526
0.0228966
-0.0170357
0.0215722
-0.0160763
0.0203226
-0.0151712
0.0191435
-0.0143183
0.0180311
-0.0135132
0.0169814
-0.0127545
0.0159912
-0.0120386
0.0150562
-0.0113633
0.0141743
-0.0107266
0.0133422
-0.0101263
0.0125566
-0.00955993
0.0118156
-0.009026
0.0111161
-0.00852217
0.0104563
-0.00804737
0.00983338
-0.00759953
0.00924536
-0.00717689
0.00869121
-0.00677913
0.00816746
-0.00640314
0.00767344
-0.00604894
0.00720708
-0.00571512
0.0067673
-0.00540025
0.00635211
-0.00510343
0.00596009
-0.00482348
0.00559051
-0.00455981
0.00524144
-0.00431076
0.00491199
-0.00407647
0.0046013
-0.00385581
0.00430784
-0.00364729
0.00403107
-0.00345135
0.00376963
-0.00326656
0.00352294
-0.00309262
0.00329016
-0.00292894
0.00307013
-0.0027747
0.00286292
-0.00263052
0.00266686
-0.002494
0.00248186
-0.00236637
0.00230718
-0.00224666
0.00214243
-0.00213457
0.00198643
-0.00202944
0.00183921
-0.00193184
0.00170001
-0.00184058
0.00156836
-0.00175594
0.00144372
-0.00167783
0.0013256
-0.00160562
0.00121393
-0.00153988
0.00110787
-0.00147964
0.00100702
-0.00142529
0.000910909
-0.0013764
0.000819067
-0.00133351
0.000731067
-0.00129533
0.000646398
-0.00126424
0.000564698
-0.0012375
0.000483641
-0.00122338
0.000401649
-0.0012113
0.000319699
-0.00123171
0.000232198
-0.0012427
0.00014432
-0.00134519
4.61369e-05
-0.00141149
-0.00150927
0.242872
-0.160861
0.229056
-0.151544
0.216033
-0.142814
0.20376
-0.134629
0.192192
-0.126944
0.181279
-0.119715
0.170988
-0.112917
0.161285
-0.106513
0.152131
-0.100482
0.143494
-0.0947963
0.135349
-0.0894315
0.127663
-0.084374
0.120415
-0.0796031
0.113575
-0.0751016
0.107122
-0.0708523
0.101036
-0.0668482
0.0952945
-0.0630651
0.0898746
-0.0594963
0.0847657
-0.0561313
0.0799435
-0.0529563
0.0753909
-0.0499576
0.0711008
-0.0471352
0.0670491
-0.0444648
0.0632324
-0.0419534
0.0596298
-0.0395803
0.0562277
-0.0373385
0.053019
-0.0352282
0.0499934
-0.0332354
0.0471371
-0.0313568
0.0444466
-0.0295854
0.0419047
-0.0279143
0.0395044
-0.0263331
0.0372457
-0.0248488
0.0351114
-0.0234441
0.033098
-0.022119
0.0311965
-0.0208714
0.0294044
-0.019694
0.0277129
-0.0185828
0.0261173
-0.0175352
0.0246119
-0.0165472
0.0231911
-0.0156149
0.0218508
-0.0147359
0.0205864
-0.0139068
0.0193928
-0.0131247
0.0182672
-0.0123876
0.0172044
-0.0116917
0.0162017
-0.0110359
0.015256
-0.0104176
0.0143635
-0.0098341
0.013521
-0.00928386
0.0127261
-0.00876509
0.0119759
-0.00827572
0.0112684
-0.0078147
0.0106003
-0.00737927
0.00996982
-0.00696907
0.00937527
-0.00658235
0.00881357
-0.00621743
0.00828401
-0.00587358
0.00778414
-0.00554907
0.0073126
-0.00524358
0.00686738
-0.00495503
0.00644699
-0.00468304
0.00605054
-0.00442703
0.0056762
-0.00418546
0.00532297
-0.00395753
0.00498982
-0.00374332
0.00467502
-0.00354102
0.00437821
-0.00335048
0.00409766
-0.0031708
0.00383342
-0.00300232
0.00358369
-0.00284289
0.00334808
-0.00269333
0.00312582
-0.00255244
0.0029156
-0.00242031
0.00271755
-0.00229595
0.00253048
-0.0021793
0.0023537
-0.00206987
0.00218669
-0.00196756
0.00202911
-0.00187187
0.00187998
-0.0017827
0.00173893
-0.00169954
0.00160572
-0.00162273
0.00147957
-0.00155168
0.00136033
-0.00148638
0.00124691
-0.00142646
0.00113953
-0.00137225
0.00103735
-0.0013231
0.000940418
-0.00127947
0.000847326
-0.00124042
0.000758666
-0.00120666
0.000672754
-0.00117833
0.00058978
-0.00115453
0.000508411
-0.00114201
0.00042748
-0.00113037
0.000345115
-0.00114934
0.000254948
-0.00115254
0.00016253
-0.00125277
5.47313e-05
-0.00130369
-0.00145454
0.24556
-0.146036
0.231588
-0.137572
0.218427
-0.129653
0.20602
-0.122221
0.19432
-0.115244
0.18329
-0.108685
0.172885
-0.102513
0.163075
-0.0967027
0.15382
-0.0912277
0.145087
-0.0860634
0.136855
-0.0811994
0.129086
-0.0766049
0.121756
-0.0722727
0.11484
-0.0681858
0.108318
-0.0643303
0.102162
-0.0606924
0.0963553
-0.0572583
0.0908801
-0.0540211
0.0857124
-0.0509636
0.080835
-0.0480789
0.0762409
-0.0453635
0.0718989
-0.0427932
0.0678058
-0.0403716
0.0639441
-0.0380917
0.0602966
-0.0359328
0.0568634
-0.0339053
0.0536201
-0.0319849
0.05056
-0.0301753
0.047676
-0.0284728
0.044951
-0.0268603
0.0423779
-0.0253412
0.0399569
-0.0239121
0.0376671
-0.022559
0.035512
-0.021289
0.0334761
-0.0200831
0.0315556
-0.0189508
0.0297431
-0.0178816
0.0280336
-0.0168733
0.0264204
-0.0159221
0.0248981
-0.0150249
0.0234617
-0.0141785
0.0221068
-0.013381
0.0208283
-0.0126282
0.0196219
-0.0119183
0.0184835
-0.0112492
0.0174097
-0.0106179
0.016396
-0.0100222
0.0154396
-0.00946113
0.014537
-0.00893154
0.0136856
-0.00843241
0.0128821
-0.00796163
0.0121239
-0.00751751
0.0114082
-0.00709896
0.0107332
-0.00670428
0.0100962
-0.00633205
0.00949479
-0.00598096
0.00892722
-0.00564986
0.00839181
-0.00533817
0.00788646
-0.00504373
0.00740912
-0.00476623
0.00695906
-0.00450496
0.00653464
-0.00425862
0.00613367
-0.00402606
0.00575524
-0.00380704
0.00539821
-0.0036005
0.0050613
-0.00340641
0.00474307
-0.00322279
0.00444282
-0.00305023
0.00415991
-0.00288789
0.00389254
-0.00273495
0.0036401
-0.00259045
0.00340199
-0.00245521
0.00317732
-0.00232777
0.00296504
-0.00220803
0.0027646
-0.00209551
0.00257542
-0.00199012
0.00239681
-0.00189127
0.00222809
-0.00179883
0.00206869
-0.00171247
0.00191799
-0.001632
0.00177574
-0.00155728
0.00164088
-0.00148787
0.00151342
-0.00142422
0.00139261
-0.00136557
0.00127831
-0.00131216
0.00116969
-0.00126364
0.00106637
-0.00121977
0.000967801
-0.0011809
0.000874032
-0.00114665
0.000784214
-0.00111685
0.000697824
-0.00109193
0.000614449
-0.00107115
0.000531919
-0.00105948
0.000449781
-0.00104823
0.000367834
-0.00106739
0.000276829
-0.00106153
0.000187116
-0.00116305
6.48763e-05
-0.00118145
-0.00138966
0.247992
-0.131063
0.233889
-0.123469
0.220594
-0.116358
0.208065
-0.109692
0.196251
-0.10343
0.185111
-0.0975447
0.174609
-0.0920112
0.164699
-0.0867919
0.155351
-0.0818799
0.146538
-0.077251
0.138217
-0.0728776
0.130371
-0.0687597
0.122972
-0.0648733
0.11599
-0.0612043
0.109403
-0.0577427
0.103188
-0.0544779
0.0973228
-0.0513927
0.0917923
-0.0484907
0.0865728
-0.0457441
0.0816504
-0.0431565
0.0770045
-0.0407175
0.0726245
-0.0384133
0.0684899
-0.036237
0.0645902
-0.034192
0.0609116
-0.0322542
0.0574368
-0.0304305
0.0541625
-0.0287106
0.0510747
-0.0270875
0.0481561
-0.0255543
0.0454069
-0.0241111
0.0428165
-0.0227509
0.0403678
-0.0214634
0.038058
-0.0202492
0.035876
-0.019107
0.0338214
-0.0180285
0.0318815
-0.0170109
0.0300514
-0.0160515
0.0283246
-0.0151465
0.0266955
-0.014293
0.0251583
-0.0134877
0.0237085
-0.0127287
0.0223398
-0.0120124
0.0210484
-0.0113369
0.0198306
-0.0107005
0.0186809
-0.0100995
0.017596
-0.00953303
0.016573
-0.00899916
0.0156069
-0.00849506
0.0146957
-0.00802036
0.0138357
-0.00757235
0.0130243
-0.00715026
0.0122585
-0.0067517
0.0115362
-0.00637668
0.010854
-0.00602206
0.0102105
-0.00568855
0.00960318
-0.00537367
0.00903048
-0.00507716
0.00848954
-0.00479723
0.00797937
-0.00453356
0.00749791
-0.00428477
0.00704344
-0.00405049
0.00661418
-0.00382936
0.00620947
-0.00362135
0.00582759
-0.00342516
0.0054672
-0.00324011
0.00512682
-0.00306603
0.00480585
-0.00290182
0.00450292
-0.00274729
0.00421691
-0.00260188
0.00394668
-0.00246473
0.00369209
-0.00233586
0.00345157
-0.00221469
0.00322455
-0.00210075
0.00301014
-0.00199362
0.00280795
-0.00189331
0.00261693
-0.00179911
0.00243651
-0.00171084
0.00226607
-0.0016284
0.00210518
-0.00155158
0.00195311
-0.00147993
0.00180929
-0.00141347
0.00167341
-0.001352
0.00154448
-0.00129529
0.0014225
-0.00124359
0.00130671
-0.00119637
0.00119698
-0.0011539
0.00109294
-0.00111574
0.000993766
-0.00108173
0.000898984
-0.00105187
0.00080813
-0.00102599
0.000720621
-0.00100443
0.000636015
-0.000986546
0.000553854
-0.000977322
0.000471649
-0.000966026
0.000389678
-0.000985423
0.000301485
-0.000973337
0.000210737
-0.00107231
8.26544e-05
-0.00105337
-0.00130701
0.250179
-0.115955
0.235951
-0.109241
0.222542
-0.102948
0.209903
-0.0970529
0.197985
-0.0915128
0.186752
-0.0863111
0.17615
-0.0814097
0.166157
-0.0767983
0.156729
-0.0724527
0.147834
-0.0683557
0.139447
-0.0644901
0.131532
-0.0608455
0.124064
-0.0574047
0.11702
-0.0541607
0.110374
-0.0510963
0.104104
-0.0482081
0.0981935
-0.0454822
0.0926112
-0.0429084
0.0873468
-0.0404797
0.0823829
-0.0381927
0.0776955
-0.0360301
0.0732741
-0.0339919
0.0691049
-0.0320678
0.0651706
-0.0302577
0.0614574
-0.0285411
0.0579585
-0.0269316
0.054653
-0.0254051
0.0515341
-0.0239686
0.0485948
-0.022615
0.0458213
-0.0213376
0.0432016
-0.0201312
0.0407318
-0.0189936
0.0384036
-0.017921
0.0362054
-0.0169087
0.0341314
-0.0159546
0.0321749
-0.0150544
0.0303286
-0.0142052
0.0285869
-0.0134048
0.0269433
-0.0126494
0.025393
-0.0119373
0.0239296
-0.0112654
0.0225492
-0.0106319
0.0212468
-0.0100345
0.0200176
-0.00947131
0.0188582
-0.00894002
0.017764
-0.00843885
0.0167313
-0.00796644
0.0157576
-0.00752139
0.0148382
-0.00710091
0.0139708
-0.00670502
0.0131522
-0.00633163
0.0123799
-0.00597937
0.0116507
-0.0056475
0.0109633
-0.00533468
0.0103143
-0.0050395
0.00970187
-0.00476126
0.00912366
-0.00449895
0.00857794
-0.00425152
0.00806331
-0.00401893
0.00757771
-0.00379918
0.00711909
-0.00359187
0.00668673
-0.00339701
0.00627829
-0.00321291
0.00589301
-0.00303988
0.00552951
-0.00287661
0.00518612
-0.00272264
0.00486241
-0.00257811
0.0045567
-0.00244158
0.00426808
-0.00231326
0.00399586
-0.00219251
0.00373888
-0.00207889
0.0034963
-0.00197211
0.00326731
-0.00187176
0.00305127
-0.00177759
0.00284717
-0.00168921
0.00265446
-0.00160639
0.00247258
-0.00152897
0.00230078
-0.00145659
0.00213821
-0.00138901
0.00198486
-0.00132659
0.00183964
-0.00126825
0.00170257
-0.00121493
0.00157285
-0.00116556
0.00144983
-0.00112057
0.00133306
-0.0010796
0.00122237
-0.00104321
0.00111696
-0.00101032
0.00101679
-0.000981556
0.000921002
-0.000956088
0.000829635
-0.000934626
0.000742316
-0.000917106
0.000656761
-0.000900991
0.000573998
-0.000894559
0.000491629
-0.000883656
0.000409479
-0.000903273
0.000322655
-0.000886513
0.00023315
-0.000982801
0.000104989
-0.000925207
-0.00120202
0.252114
-0.100736
0.237776
-0.0949028
0.224263
-0.0894355
0.211527
-0.0843169
0.199519
-0.0795056
0.188196
-0.0749876
0.177518
-0.0707321
0.167449
-0.0667286
0.157949
-0.0629529
0.148985
-0.0593914
0.140532
-0.056037
0.132555
-0.0528691
0.125031
-0.0498808
0.117932
-0.0470617
0.111238
-0.0444016
0.104919
-0.0418899
0.0989571
-0.0395199
0.0933333
-0.0372847
0.0880309
-0.0351773
0.0830256
-0.0331873
0.0783036
-0.031308
0.073851
-0.0295393
0.0696507
-0.0278674
0.0656819
-0.0262889
0.0619445
-0.0248037
0.0584145
-0.0234015
0.0550848
-0.0220754
0.0519458
-0.0208296
0.0489823
-0.0196516
0.0461853
-0.0185407
0.0435476
-0.0174934
0.0410592
-0.0165051
0.0387109
-0.0155728
0.036496
-0.0146938
0.0344062
-0.0138647
0.0324345
-0.0130827
0.0305743
-0.012345
0.0288188
-0.0116493
0.0271628
-0.0109934
0.0256
-0.0103745
0.0241259
-0.00979135
0.0227348
-0.00924076
0.0214223
-0.00872205
0.0201838
-0.00823279
0.0190154
-0.0077716
0.0179129
-0.00733639