/*--------------------------------*- C++ -*----------------------------------*\
  =========                 |
  \\      /  F ield         | OpenFOAM: The Open Source CFD Toolbox
   \\    /   O peration     | Website:  https://openfoam.org
    \\  /    A nd           | Version:  9
     \\/     M anipulation  |
\*---------------------------------------------------------------------------*/
FoamFile
{
    format      ascii;
    class       volScalarField;
    location    "1500";
    object      ReThetat;
}
// * * * * * * * * * * * * * * * * * * * * * * * * * * * * * * * * * * * * * //

dimensions      [0 0 0 0 0 0 0];

internalField   nonuniform List<scalar> 
13446
(
902.444
899.661
1130.36
896.125
1236.5
1450.85
1465.82
1466.83
894.513
1145.68
1438.72
1465.13
1466.46
1277.71
892.233
1122.54
1422.78
1463.28
1465.8
1303.95
1189.71
889.702
1130.7
1340.74
1457.9
1464.9
1340.25
1202.4
1156.66
1143.33
1139
1137
1135.01
1132.54
1129.83
1127.09
1124.4
1121.74
1119.09
1116.46
1113.84
1111.24
1108.66
1106.11
1103.59
1101.1
1098.67
1096.26
1093.87
1091.53
1089.25
1087.04
886.414
1311.54
1452.63
1464.89
1462.92
1389.95
1218.89
1160.95
1144.85
1139.71
1137.51
1135.54
1133.1
1130.33
1127.49
1124.67
1121.88
1119.11
1116.35
1113.59
1110.84
1108.11
1105.4
1102.71
1100.05
1097.43
1094.78
1092.11
1089.44
1086.81
1084.2
1081.64
1079.11
688.385
684.952
680.159
676.479
673.999
671.449
668.595
665.879
662.864
659.978
657.881
655.478
651.941
648.657
646.702
644.462
640.318
635.247
631.056
627.759
624.377
622.024
595.003
570.727
550.202
539.116
885.609
1158.98
1439.02
1465.13
1461.45
1452.05
1238.32
1166.12
1146.76
1140.58
1138.03
1136.01
1133.55
1130.72
1127.78
1124.87
1121.97
1119.07
1116.17
1113.25
1110.32
1107.37
1104.42
1101.45
1098.47
1095.47
1092.47
1089.46
1086.44
1083.41
1080.38
1077.33
1074.26
1071.2
660.785
660.579
657.574
655.046
654.554
654.361
653.555
652.526
651.546
649.938
648.512
647.634
645.875
642.978
640.748
639.79
638.047
634.204
629.615
625.977
623.083
620.003
617.813
593.07
570.026
549.957
539.091
883.988
1141.94
1436.85
1465.01
1460.9
1465.52
1254.79
1173.04
1149.34
1141.56
1138.5
1136.44
1134.02
1131.17
1128.15
1125.13
1122.12
1119.1
1116.06
1112.99
1109.88
1106.74
1103.55
1100.31
1097.03
1093.69
1090.28
1086.81
1083.27
1079.64
1075.91
1072.07
1068.1
1063.98
1059.72
1055.28
624.261
627.288
628.695
626.899
628.765
631.523
633.355
634.636
635.802
636.666
636.546
636.69
636.92
635.735
633.658
632.672
632.767
631.546
628.057
623.965
620.849
618.335
615.56
613.521
591.097
569.274
549.662
539.073
882.427
1130.13
1434.92
1464.66
1460.72
1464.25
1273.66
1181.81
1152.47
1142.74
1139.06
1136.9
1134.52
1131.67
1128.58
1125.46
1122.34
1119.2
1116.03
1112.8
1109.51
1106.17
1102.75
1099.26
1095.68
1092.01
1088.23
1084.33
1080.3
1076.11
1071.77
1067.23
1062.48
1057.49
1052.23
1046.64
1040.75
641.06
627.316
614.48
603.188
594.042
587.524
584.227
586.494
591.896
593.719
594.327
602.158
606.614
610.763
614.612
618.163
620.868
622.386
624.239
625.393
624.793
623.885
624.443
625.61
624.815
621.681
618.154
615.602
613.48
611.011
609.121
589.027
568.417
549.338
539.051
880.946
1120.06
1432.11
1463.71
1460.59
1463.42
1299.05
1192.93
1156.29
1144.18
1139.73
1137.41
1135.07
1132.23
1129.09
1125.87
1122.63
1119.37
1116.06
1112.68
1109.22
1105.69
1102.05
1098.31
1094.45
1090.45
1086.31
1082
1077.49
1072.79
1067.86
1062.67
1057.2
1051.41
1045.26
1038.72
1031.73
1024.28
1016.31
635.135
621.476
608.868
597.586
587.886
579.942
573.785
569.222
565.582
562.677
561.731
565.049
576.428
579.56
587.586
593.531
599.543
603.986
607.391
610.994
612.907
613.213
613.978
616.245
618.345
617.842
615.081
612.192
610.24
608.525
606.368
604.62
586.869
567.483
548.955
539.031
879.508
1114.04
1420.82
1460.88
1460.72
1462.24
1335.23
1207.72
1160.99
1145.95
1140.56
1137.99
1135.66
1132.85
1129.66
1126.34
1123
1119.61
1116.17
1112.64
1109.02
1105.29
1101.44
1097.46
1093.32
1089.02
1084.52
1079.82
1074.88
1069.69
1064.22
1058.43
1052.29
1045.76
1038.82
1031.41
1023.5
1015.03
1005.95
996.276
985.948
714.688
697.214
680.39
664.137
648.52
633.708
619.897
607.217
595.87
586.037
577.897
571.594
567.08
563.982
561.9
560.5
559.327
557.955
555.565
554.634
566.397
571.278
580.378
585.887
591.606
596.805
599.467
601.316
604.195
608.107
610.857
610.497
608.176
606.04
604.749
603.468
601.639
600.025
584.651
566.417
548.518
539.008
878.01
1107.48
1367.72
1454.92
1461.18
1460.39
1390.57
1228.09
1166.76
1148.11
1141.62
1138.67
1136.31
1133.52
1130.3
1126.9
1123.44
1119.94
1116.37
1112.7
1108.91
1105
1100.95
1096.73
1092.32
1087.72
1082.89
1077.82
1072.47
1066.82
1060.83
1054.48
1047.74
1040.55
1032.88
1024.69
1015.95
1006.6
996.627
985.989
974.653
962.646
949.899
936.4
922.228
698.149
681.402
665.294
649.803
635.073
621.297
608.661
597.335
587.466
579.23
572.822
568.266
565.251
563.192
561.669
560.36
559.104
557.88
556.867
555.927
553.347
551.048
562.826
566.718
575.629
581.645
585.384
589.522
594.619
599.875
602.936
602.648
600.942
599.726
599.163
598.34
596.84
595.366
582.384
565.219
548.021
538.978
876.242
1120.61
1323.04
1453.98
1460.24
1457.81
1463.46
1253.31
1174.04
1150.97
1143
1139.47
1136.99
1134.24
1131.02
1127.55
1123.98
1120.36
1116.66
1112.85
1108.9
1104.82
1100.56
1096.11
1091.45
1086.57
1081.43
1076
1070.26
1064.18
1057.72
1050.86
1043.54
1035.74
1027.41
1018.52
1009.04
998.931
988.17
976.736
964.603
951.756
938.208
923.979
909.07
893.582
877.542
684.859
668.768
653.283
638.529
624.693
611.963
600.511
590.474
582.026
575.366
570.612
567.501
565.474
563.936
562.568
561.266
560.014
558.813
557.625
556.428
555.443
554.768
551.977
549.368
561.04
565.653
571.279
578.078
585.093
591.321
594.426
594.307
593.503
593.367
593.557
593.178
591.987
590.657
580.009
563.861
547.432
538.942
872.995
1355.34
1453.86
1463.27
1459.22
1457.3
1462.25
1273.81
1184.56
1155.08
1144.67
1140.32
1137.71
1135.02
1131.82
1128.28
1124.61
1120.87
1117.04
1113.1
1109
1104.74
1100.28
1095.62
1090.73
1085.58
1080.13
1074.38
1068.27
1061.78
1054.88
1047.53
1039.7
1031.33
1022.41
1012.89
1002.75
991.968
980.525
968.393
955.563
942.049
927.869
913.037
897.588
881.572
865.028
848.106
830.81
813.204
795.404
777.511
759.63
741.858
724.303
707.063
690.245
673.975
658.321
643.428
629.445
616.526
604.844
594.545
585.76
578.73
573.593
570.249
567.971
566.198
564.659
563.254
561.942
560.699
559.503
558.343
557.214
556.089
554.91
553.958
553.417
550.369
550.907
558.266
566.946
575.416
582.31
585.354
585.716
586.122
587.109
587.971
587.989
587.088
585.924
577.537
562.287
546.771
538.903
873.556
1165.23
1435.15
1463.33
1459.18
1457.01
1460.89
1303.29
1198.59
1159.73
1146.13
1141.04
1138.49
1135.93
1132.74
1129.11
1125.33
1121.48
1117.53
1113.45
1109.21
1104.78
1100.14
1095.28
1090.15
1084.74
1079.02
1072.94
1066.49
1059.63
1052.32
1044.52
1036.2
1027.32
1017.85
1007.77
997.048
985.673
973.618
960.874
947.454
933.376
918.655
903.321
887.426
871.021
854.179
836.966
819.457
801.751
783.942
766.121
748.389
730.841
713.578
696.704
680.33
664.563
649.523
635.34
622.153
610.136
599.466
590.249
582.682
577.064
573.263
570.598
568.551
566.842
565.335
563.959
562.67
561.443
560.258
559.105
557.975
556.863
555.771
554.684
553.498
552.646
551.747
548.496
556.287
565.604
572.87
575.957
577.223
578.982
580.955
582.368
582.758
582.151
581.212
574.714
560.476
546.008
538.86
872.993
1132.39
1430.15
1462.91
1459.07
1456.79
1459.21
1346.21
1216.42
1164.06
1146.7
1141.3
1139.28
1137.05
1133.84
1130.07
1126.15
1122.19
1118.13
1113.93
1109.55
1104.95
1100.14
1095.07
1089.73
1084.08
1078.08
1071.71
1064.94
1057.72
1050.02
1041.81
1033.05
1023.7
1013.74
1003.15
991.906
979.992
967.395
954.123
940.196
925.627
910.442
894.697
878.434
861.718
844.623
827.221
809.603
791.853
774.063
756.332
738.753
721.425
704.451
687.937
671.988
656.716
642.245
628.712
616.279
605.14
595.415
587.218
580.93
576.537
573.42
571.06
569.145
567.501
566.031
564.678
563.404
562.189
561.014
559.87
558.748
557.643
556.549
555.463
554.4
553.321
552.154
551.603
548.471
556.063
563.379
566.531
568.909
571.949
574.761
576.696
577.496
577.208
576.549
571.363
558.395
545.161
538.818
872.242
1117.82
1429.22
1462.94
1458.84
1456.57
1457
1406.46
1238.27
1167.89
1146.33
1140.95
1139.92
1138.31
1135.14
1131.18
1127.09
1123.01
1118.84
1114.52
1109.99
1105.25
1100.27
1095.02
1089.47
1083.59
1077.33
1070.69
1063.62
1056.07
1048.01
1039.42
1030.24
1020.46
1010.05
999.005
987.289
974.891
961.817
948.086
933.71
918.712
903.141
887.042
870.471
853.503
836.205
818.662
800.956
783.181
765.432
747.8
730.38
713.274
696.582
680.409
664.862
650.061
636.138
623.243
611.555
601.258
592.382
585.27
580.164
576.507
573.767
571.592
569.77
568.177
566.739
565.407
564.15
562.947
561.783
560.647
559.532
558.433
557.346
556.267
555.193
554.123
553.088
551.918
551.298
548.459
554.8
556.743
560.394
564.798
568.482
571.004
572.258
572.301
571.97
566.722
556.011
544.216
538.777
870.707
1160.51
1433.37
1462.58
1458.46
1456.29
1454.98
1461.83
1262.88
1174.07
1146.98
1140.47
1139.92
1139.16
1136.43
1132.47
1128.22
1123.97
1119.68
1115.24
1110.58
1105.7
1100.55
1095.13
1089.38
1083.28
1076.79
1069.89
1062.53
1054.67
1046.28
1037.32
1027.77
1017.6
1006.79
995.321
983.176
970.347
956.85
942.709
927.935
912.569
896.661
880.258
863.432
846.247
828.787
811.13
793.371
775.593
757.894
740.365
723.105
706.211
689.788
673.938
658.776
644.426
631.032
618.753
607.788
598.245
590.205
584.249
579.932
576.718
574.213
572.164
570.415
568.868
567.459
566.149
564.908
563.717
562.563
561.435
560.328
559.235
558.152
557.078
556.009
554.945
553.877
552.837
551.709
550.848
549.285
547.073
552.285
557.886
562.307
565.38
567.086
567.473
567.437
561.365
553.241
543.179
538.742
870.448
1119.75
1429.31
1462.34
1458.43
1456.12
1454.82
1459.24
1292.89
1189.99
1152.42
1140.87
1138.56
1138.44
1137.08
1133.86
1129.63
1125.15
1120.66
1116.07
1111.3
1106.29
1100.99
1095.4
1089.46
1083.15
1076.45
1069.3
1061.67
1053.53
1044.83
1035.55
1025.65
1015.12
1003.94
992.084
979.546
966.332
952.462
937.954
922.828
907.141
890.933
874.273
857.22
839.858
822.261
804.517
786.713
768.944
751.298
733.875
716.771
700.082
683.911
668.366
653.568
639.65
626.762
615.083
604.797
595.918
588.93
583.783
579.971
577.051
574.716
572.769
571.083
569.577
568.196
566.905
565.679
564.499
563.355
562.235
561.134
560.047
558.969
557.898
556.832
555.769
554.708
553.644
552.588
551.514
550.413
549.666
547.223
551.638
556.292
559.843
562.006
562.761
562.936
556.202
549.228
542.107
538.711
866.158
1159.65
1441.65
1460.3
1457.51
1455.74
1454.63
1456.65
1360.01
1224.23
1164.38
1142.54
1135.62
1135.3
1136.24
1134.99
1131.33
1126.64
1121.84
1117.06
1112.16
1107.03
1101.59
1095.84
1089.73
1083.23
1076.32
1068.94
1061.06
1052.65
1043.67
1034.08
1023.87
1013.01
1001.49
989.283
976.392
962.829
948.621
933.779
918.344
902.37
885.903
869.014
851.768
834.251
816.539
798.72
780.889
763.133
745.545
728.224
711.263
694.761
678.827
663.572
649.12
635.613
623.209
612.108
602.416
594.259
588.132
583.596
580.164
577.471
575.272
573.409
571.776
570.304
568.948
567.676
566.463
565.295
564.159
563.047
561.952
560.869
559.795
558.727
557.663
556.6
555.538
554.474
553.406
552.331
551.266
550.102
549.291
546.964
550.683
554.486
557.077
558.221
558.513
552.411
546.008
541.284
538.668
867.741
1109.02
1418.22
1459.85
1458.19
1455.81
1454.54
1453.09
1460.11
1275.45
1180.92
1145.1
1132.31
1130.74
1133.82
1135.41
1133.12
1128.46
1123.29
1118.22
1113.17
1107.92
1102.36
1096.46
1090.18
1083.51
1076.4
1068.81
1060.71
1052.05
1042.8
1032.93
1022.43
1011.27
999.43
986.904
973.695
959.824
945.307
930.166
914.457
898.22
881.524
864.429
847.015
829.359
811.548
793.667
775.812
758.07
740.537
723.309
706.483
690.159
674.444
659.459
645.332
632.212
620.272
609.716
600.532
593.219
587.751
583.652
580.492
577.967
575.874
574.078
572.49
571.05
569.717
568.461
567.261
566.103
564.975
563.868
562.778
561.699
560.629
559.562
558.498
557.434
556.369
555.3
554.225
553.142
552.043
550.949
549.757
548.862
546.623
549.597
552.407
553.915
554.314
549.45
544.159
540.677
538.589
865.444
1097.95
1278.99
1442.67
1459.56
1456.23
1454.38
1453.02
1456.84
1313.15
1198.93
1149.62
1131.15
1127.54
1131.26
1135.14
1134.64
1130.43
1124.98
1119.59
1114.34
1108.97
1103.3
1097.27
1090.84
1084
1076.71
1068.92
1060.6
1051.71
1042.22
1032.1
1021.33
1009.89
997.769
984.952
971.452
957.295
942.494
927.087
911.129
894.66
877.755
860.477
842.91
825.131
807.228
789.294
771.415
753.687
736.204
719.061
702.355
686.193
670.684
655.948
642.125
629.371
617.873
607.797
599.133
592.537
587.605
583.852
580.908
578.518
576.511
574.773
573.225
571.814
570.501
569.259
568.071
566.921
565.799
564.698
563.611
562.534
561.464
560.398
559.332
558.264
557.194
556.117
555.031
553.933
552.821
551.686
550.542
549.299
548.291
546.114
548.242
549.945
550.467
546.738
542.747
540.115
538.477
883.257
1142.97
1432.35
1462.39
1457.66
1455.28
1454.15
1452.9
1455.05
1357.79
1220.4
1157.42
1134.04
1128.03
1130.72
1135.19
1135.91
1132.3
1126.8
1121.16
1115.72
1110.22
1104.44
1098.28
1091.71
1084.71
1077.25
1069.28
1060.77
1051.67
1041.95
1031.59
1020.58
1008.89
996.502
983.418
969.658
955.24
940.182
924.535
908.346
891.665
874.569
857.125
839.414
821.525
803.539
785.551
767.648
749.929
732.488
715.419
698.823
682.806
667.48
652.974
639.433
627.02
615.938
606.257
598.288
592.243
587.686
584.179
581.396
579.114
577.181
575.493
573.98
572.592
571.296
570.067
568.888
567.744
566.626
565.528
564.443
563.366
562.294
561.224
560.154
559.08
558
556.911
555.811
554.695
553.561
552.404
551.213
549.997
548.676
547.518
545.367
546.527
547.093
544.414
541.492
539.619
538.36
929.376
1206
1437.78
1461.28
1457.28
1455.16
1454.03
1452.84
1452.46
1426.73
1253.26
1170.75
1141.31
1132.6
1133.4
1136.85
1137.44
1134
1128.57
1122.86
1117.3
1111.68
1105.78
1099.5
1092.8
1085.66
1078.04
1069.91
1061.21
1051.92
1042
1031.42
1020.18
1008.26
995.629
982.305
968.305
953.649
938.358
922.489
906.085
889.215
871.94
854.345
836.503
818.507
800.439
782.396
764.468
746.752
729.342
712.335
695.83
679.939
664.779
650.481
637.198
625.1
614.4
605.068
597.672
592.091
587.859
584.57
581.932
579.745
577.876
576.23
574.746
573.378
572.095
570.876
569.702
568.561
567.445
566.347
565.259
564.179
563.102
562.026
560.947
559.862
558.769
557.665
556.546
555.409
554.249
553.06
551.838
550.568
549.255
547.822
546.469
544.261
544.383
542.504
540.459
539.238
538.269
844.757
1176.62
1435.3
1461.75
1457.37
1455.09
1453.93
1452.77
1451.16
1456.51
1283.78
1187.53
1151.83
1140.37
1138.83
1140.09
1139.38
1135.65
1130.32
1124.7
1119.1
1113.37
1107.36
1100.95
1094.14
1086.86
1079.1
1070.81
1061.95
1052.47
1042.36
1031.59
1020.15
1008.01
995.16
981.613
967.393
952.512
937.007
920.935
904.336
887.286
869.847
852.106
834.139
816.035
797.891
779.791
761.833
744.11
726.718
709.756
693.329
677.546
662.529
648.417
635.366
623.558
613.189
604.198
597.306
592.118
588.154
585.04
582.516
580.403
578.581
576.967
575.504
574.15
572.876
571.661
570.489
569.349
568.231
567.128
566.036
564.948
563.863
562.776
561.685
560.586
559.476
558.352
557.211
556.049
554.86
553.638
552.377
551.069
549.697
548.252
546.664
545.025
542.745
541.038
539.648
538.953
538.169
864.855
1108.51
1382.48
1458.85
1457.41
1455.08
1453.87
1452.69
1451.16
1454.35
1329.66
1213.57
1165.05
1148.74
1144.24
1143.11
1141.2
1137.38
1132.28
1126.75
1121.09
1115.25
1109.11
1102.6
1095.67
1088.27
1080.38
1071.94
1062.92
1053.29
1043.01
1032.07
1020.43
1008.1
995.044
981.292
966.868
951.785
936.082
919.82
903.039
885.82
868.225
850.345
832.26
814.054
795.826
777.663
759.666
741.925
724.542
707.614
691.246
675.552
660.657
646.706
633.862
622.317
612.206
603.708
597.215
592.306
588.526
585.533
583.089
581.029
579.242
577.652
576.203
574.859
573.59
572.376
571.203
570.06
568.937
567.827
566.726
565.628
564.531
563.431
562.324
561.207
560.077
558.931
557.765
556.575
555.356
554.101
552.803
551.452
550.034
548.528
546.912
545.083
543.139
540.036
539.205
538.751
538.043
863.809
1369.4
1454.25
1461.28
1457.08
1454.99
1453.84
1452.66
1451.26
1450.49
1432.05
1264.7
1185.73
1158.83
1149.63
1145.8
1142.79
1138.94
1134.11
1128.71
1123.01
1117.07
1110.82
1104.2
1097.17
1089.67
1081.65
1073.09
1063.94
1054.16
1043.73
1032.62
1020.82
1008.31
995.078
981.143
966.537
951.271
935.395
918.958
902.011
884.637
866.903
848.889
830.69
812.387
794.081
775.857
757.819
740.058
722.674
705.767
689.445
673.825
659.035
645.222
632.556
621.242
611.355
603.257
597.091
592.411
588.787
585.898
583.523
581.509
579.753
578.183
576.747
575.409
574.143
572.93
571.755
570.607
569.477
568.36
567.249
566.14
565.03
563.914
562.79
561.655
560.504
559.336
558.146
556.929
555.681
554.396
553.065
551.676
550.217
548.665
546.992
545.123
543.059
540.079
539.122
538.495
537.861
866.874
1141.16
1429.94
1462.08
1457.59
1455.07
1453.85
1452.66
1451.31
1449.48
1454.53
1286.93
1196.07
1163.25
1151.79
1147.01
1143.67
1139.79
1135.04
1129.68
1123.95
1117.95
1111.63
1104.95
1097.85
1090.27
1082.17
1073.52
1064.27
1054.39
1043.84
1032.62
1020.69
1008.05
994.678
980.611
965.862
950.453
934.439
917.863
900.795
883.297
865.454
847.341
829.055
810.679
792.311
774.047
755.981
738.207
720.829
703.946
687.67
672.117
657.42
643.731
631.223
620.11
610.41
602.634
596.733
592.242
588.748
585.947
583.632
581.66
579.933
578.383
576.961
575.632
574.372
573.162
571.988
570.839
569.707
568.585
567.467
566.35
565.23
564.103
562.966
561.816
560.651
559.468
558.262
557.029
555.763
554.457
553.103
551.689
550.2
548.615
546.907
544.997
542.912
539.768
538.681
538.014
537.623
865.14
1114.39
1338.48
1453.52
1456.29
1454.99
1453.9
1452.72
1451.31
1450.76
1426.47
1265.66
1187.67
1160.17
1150.44
1146.18
1142.85
1138.85
1134.01
1128.63
1122.93
1116.94
1110.63
1103.94
1096.83
1089.23
1081.11
1072.43
1063.15
1053.22
1042.63
1031.35
1019.36
1006.65
993.214
979.078
964.257
948.775
932.688
916.041
898.906
881.346
863.447
845.286
826.96
808.556
790.166
771.89
753.824
736.062
718.709
701.865
685.642
670.159
655.55
641.973
629.602
618.656
609.108
601.577
595.878
591.535
588.144
585.417
583.154
581.22
579.521
577.992
576.587
575.271
574.021
572.82
571.654
570.512
569.386
568.271
567.16
566.05
564.937
563.818
562.689
561.548
560.392
559.217
558.018
556.791
555.527
554.221
552.863
551.443
549.946
548.352
546.629
544.714
542.574
539.58
537.947
537.22
537.291
867.465
1111.7
1422.08
1460.24
1457.98
1455.45
1454
1452.79
1451.3
1453.81
1347.43
1228.72
1176.05
1156.38
1148.47
1144.4
1140.91
1136.79
1131.91
1126.56
1120.9
1114.96
1108.7
1102.04
1094.95
1087.38
1079.27
1070.61
1061.32
1051.4
1040.8
1029.51
1017.51
1004.77
991.315
977.152
962.302
946.789
930.671
913.994
896.829
879.242
861.319
843.139
824.799
806.387
787.994
769.723
751.668
733.925
716.601
699.794
683.619
668.194
653.659
640.172
627.909
617.092
607.661
600.308
594.758
590.526
587.216
584.546
582.325
580.422
578.745
577.232
575.839
574.534
573.292
572.098
570.938
569.801
568.682
567.572
566.468
565.366
564.261
563.15
562.032
560.902
559.757
558.594
557.408
556.195
554.947
553.658
552.319
550.919
549.441
547.863
546.152
544.256
542.083
539.371
536.048
535.554
536.697
867.379
1117.62
1414.25
1460.83
1457.79
1455.38
1454.1
1452.92
1451.33
1456.39
1295.98
1201.92
1166.07
1152.43
1146.29
1142.52
1138.89
1134.62
1129.71
1124.39
1118.8
1112.92
1106.71
1100.09
1093.04
1085.51
1077.43
1068.79
1059.53
1049.63
1039.05
1027.77
1015.77
1003.05
989.586
975.415
960.557
945.033
928.902
912.21
895.03
877.428
859.492
841.3
822.95
804.53
786.135
767.865
749.815
732.084
714.775
697.99
681.844
666.459
651.971
638.545
626.357
615.63
606.281
599.052
593.608
589.456
586.206
583.58
581.391
579.51
577.851
576.351
574.967
573.668
572.432
571.241
570.084
568.95
567.833
566.726
565.625
564.525
563.424
562.317
561.203
560.078
558.938
557.781
556.602
555.397
554.16
552.884
551.561
550.179
548.722
547.167
545.481
543.612
541.46
538.811
535.266
534.579
536.131
863.293
1197.8
1437.79
1461.72
1457.53
1455.35
1454.23
1453.02
1453.39
1406.43
1252.23
1182.37
1158.05
1148.81
1144.27
1140.82
1137.03
1132.6
1127.66
1122.4
1116.88
1111.07
1104.91
1098.35
1091.35
1083.85
1075.83
1067.23
1058.01
1048.14
1037.59
1026.34
1014.37
1001.66
988.219
974.06
959.208
943.687
927.556
910.861
893.675
876.065
858.118
839.915
821.552
803.119
784.713
766.435
748.38
730.646
713.336
696.555
680.416
665.044
650.577
637.177
625.027
614.35
605.051
597.894
592.516
588.418
585.209
582.615
580.449
578.586
576.939
575.448
574.07
572.775
571.541
570.352
569.196
568.062
566.944
565.837
564.735
563.635
562.534
561.427
560.313
559.189
558.05
556.894
555.718
554.516
553.283
552.012
550.695
549.321
547.874
546.333
544.667
542.81
540.734
537.846
536.167
534.883
535.781
865.497
1181.29
1436.66
1462.11
1457.72
1455.49
1454.4
1453.13
1456.56
1322.91
1211.82
1167.04
1151.54
1145.78
1142.59
1139.32
1135.32
1130.75
1125.8
1120.62
1115.18
1109.44
1103.34
1096.84
1089.89
1082.46
1074.49
1065.95
1056.78
1046.97
1036.47
1025.26
1013.33
1000.67
987.256
973.12
958.293
942.793
926.674
909.99
892.8
875.186
857.233
839.019
820.643
802.193
783.771
765.47
747.394
729.641
712.312
695.515
679.361
663.976
649.5
636.097
623.947
613.279
603.994
596.859
591.509
587.439
584.255
581.681
579.531
577.681
576.042
574.557
573.183
571.89
570.657
569.468
568.31
567.175
566.055
564.945
563.841
562.738
561.634
560.525
559.408
558.282
557.142
555.985
554.808
553.605
552.372
551.101
549.786
548.414
546.972
545.437
543.784
541.941
539.899
537.05
534.824
534.702
535.582
969.07
1422.79
1465.25
1459.31
1456.6
1455.57
1454.64
1453.27
1459.09
1278.63
1186.12
1154.65
1145.17
1142.64
1140.98
1137.98
1133.79
1129.07
1124.13
1119.03
1113.67
1108.01
1101.98
1095.55
1088.67
1081.31
1073.42
1064.94
1055.86
1046.11
1035.67
1024.53
1012.66
1000.06
986.698
972.608
957.82
942.353
926.259
909.595
892.414
874.806
856.847
838.622
820.229
801.756
783.308
764.978
746.868
729.08
711.713
694.876
678.684
663.26
648.745
635.304
623.118
612.418
603.114
595.952
590.591
586.524
583.348
580.784
578.644
576.8
575.168
573.686
572.314
571.022
569.788
568.597
567.437
566.298
565.175
564.062
562.954
561.847
560.739
559.626
558.506
557.376
556.232
555.072
553.892
552.687
551.452
550.18
548.863
547.491
546.049
544.517
542.869
541.037
539.001
536.259
533.788
534.259
535.425
893.446
1136.04
1433.35
1462.95
1458.17
1455.88
1454.81
1454.97
1418.14
1246.37
1170.75
1146.66
1140.68
1140.32
1139.6
1136.67
1132.31
1127.52
1122.64
1117.63
1112.36
1106.77
1100.82
1094.47
1087.67
1080.4
1072.59
1064.21
1055.21
1045.55
1035.2
1024.14
1012.36
999.827
986.542
972.517
957.786
942.368
926.309
909.675
892.517
874.92
856.958
838.724
820.313
801.814
783.333
764.961
746.805
728.965
711.544
694.647
678.391
662.901
648.318
634.805
622.545
611.768
602.411
595.171
589.761
585.671
582.487
579.923
577.786
575.946
574.315
572.835
571.463
570.17
568.935
567.741
566.578
565.436
564.309
563.191
562.078
560.966
559.853
558.736
557.61
556.475
555.328
554.163
552.98
551.771
550.533
549.258
547.938
546.564
545.122
543.59
541.946
540.117
538.119
535.234
532.819
533.729
535.278
863.811
1095.28
1304.58
1448.43
1459.49
1456.53
1455.05
1457.5
1350.85
1217.8
1161.35
1142.97
1139.11
1139.41
1138.49
1135.24
1130.81
1126.1
1121.34
1116.4
1111.22
1105.72
1099.86
1093.6
1086.89
1079.72
1072.01
1063.73
1054.84
1045.29
1035.05
1024.09
1012.41
999.979
986.788
972.849
958.193
942.841
926.836
910.244
893.116
875.537
857.579
839.34
820.908
802.378
783.854
765.432
747.216
729.308
711.812
694.835
678.493
662.91
648.227
634.607
622.234
611.338
601.889
594.517
589.018
584.879
581.671
579.096
576.954
575.113
573.483
572.003
570.63
569.335
568.097
566.9
565.733
564.587
563.455
562.332
561.214
560.097
558.978
557.855
556.724
555.584
554.43
553.261
552.072
550.859
549.616
548.338
547.014
545.638
544.194
542.663
541.021
539.197
537.149
535.608
532.513
533.239
535.123
867.798
1102.24
1377.87
1454.55
1459.49
1456.73
1455.29
1459.48
1301.33
1195.92
1155.51
1142.46
1139.69
1139.25
1137.36
1133.75
1129.37
1124.82
1120.18
1115.34
1110.24
1104.83
1099.07
1092.92
1086.32
1079.26
1071.67
1063.52
1054.75
1045.32
1035.22
1024.39
1012.83
1000.52
987.44
973.608
959.048
943.784
927.849
911.312
894.225
876.671
858.723
840.479
822.024
803.459
784.887
766.403
748.115
730.123
712.533
695.454
679.001
663.297
648.484
634.724
622.198
611.139
601.556
593.992
588.362
584.146
580.897
578.301
576.149
574.303
572.669
571.187
569.812
568.514
567.273
566.072
564.901
563.749
562.612
561.484
560.36
559.237
558.113
556.983
555.846
554.699
553.54
552.365
551.17
549.953
548.705
547.422
546.096
544.716
543.27
541.74
540.095
538.338
535.821
535.558
532.634
532.899
534.966
867.105
1169.95
1440.84
1459.75
1458.25
1456.68
1455.48
1462.36
1267.78
1179.97
1151.85
1143.16
1140.6
1138.91
1136.13
1132.34
1128.1
1123.71
1119.18
1114.43
1109.43
1104.12
1098.47
1092.43
1085.96
1079.02
1071.57
1063.55
1054.93
1045.67
1035.7
1025.03
1013.61
1001.45
988.513
974.808
960.364
945.205
929.36
912.894
895.861
878.342
860.412
842.164
823.687
805.086
786.455
767.901
749.524
731.432
713.73
696.526
679.936
664.085
649.11
635.173
622.455
611.187
601.426
593.605
587.793
583.471
580.164
577.537
575.369
573.513
571.874
570.387
569.008
567.707
566.462
565.257
564.08
562.924
561.781
560.647
559.517
558.388
557.256
556.12
554.977
553.823
552.658
551.476
550.276
549.052
547.8
546.512
545.182
543.8
542.352
540.823
539.173
537.367
536.723
536.009
533.034
532.699
534.812
872.033
1126
1432.48
1463.47
1459.25
1457.05
1457.76
1399.49
1235.44
1169.58
1149.68
1143.41
1140.67
1138.15
1134.92
1131.11
1127.01
1122.74
1118.31
1113.68
1108.77
1103.57
1098.04
1092.13
1085.8
1079
1071.7
1063.85
1055.39
1046.3
1036.51
1026.01
1014.77
1002.77
990.004
976.457
962.15
947.118
931.385
915.006
898.048
880.573
862.67
844.422
825.925
807.282
788.588
769.952
751.476
733.267
715.433
698.081
681.328
665.298
650.13
635.98
623.031
611.507
601.519
593.364
587.318
582.857
579.474
576.805
574.613
572.744
571.096
569.603
568.22
566.914
565.664
564.454
563.272
562.11
560.961
559.821
558.684
557.548
556.41
555.267
554.116
552.956
551.783
550.595
549.388
548.158
546.9
545.608
544.275
542.891
541.441
539.908
538.341
535.876
537.052
536.74
533.697
532.631
534.666
872.859
1143.91
1432.69
1463.55
1459.52
1457.33
1460.1
1337.47
1210.96
1162.88
1147.93
1142.79
1139.99
1137.18
1133.84
1130.07
1126.07
1121.91
1117.58
1113.05
1108.26
1103.18
1097.78
1092.01
1085.83
1079.2
1072.07
1064.4
1056.13
1047.23
1037.65
1027.35
1016.31
1004.51
991.932
978.568
964.429
949.548
933.953
917.682
900.81
883.395
865.528
847.287
828.774
810.084
791.321
772.594
754.002
735.658
717.671
700.149
683.209
666.972
651.576
637.178
623.956
612.129
601.863
593.277
586.934
582.301
578.823
576.102
573.881
571.995
570.336
568.835
567.446
566.134
564.879
563.663
562.475
561.307
560.152
559.005
557.861
556.719
555.573
554.422
553.264
552.097
550.917
549.722
548.508
547.272
546.009
544.711
543.374
541.986
540.544
538.986
537.357
537.356
537.921
537.594
534.431
532.661
534.533
872.597
1273.52
1446.63
1463.73
1459.6
1457.6
1461.71
1299.28
1195.2
1158.29
1146.25
1141.74
1139.04
1136.23
1132.89
1129.18
1125.25
1121.2
1116.98
1112.57
1107.91
1102.96
1097.7
1092.08
1086.07
1079.62
1072.67
1065.2
1057.15
1048.47
1039.12
1029.05
1018.24
1006.66
994.309
981.164
967.223
952.517
937.084
920.948
904.182
886.845
869.024
850.799
832.271
813.536
794.702
775.871
757.157
738.66
720.496
702.778
685.621
669.146
653.489
638.805
625.27
613.091
602.488
593.452
586.694
581.816
578.211
575.426
573.171
571.265
569.593
568.083
566.686
565.368
564.106
562.884
561.69
560.516
559.354
558.2
557.049
555.898
554.745
553.587
552.422
551.246
550.059
548.857
547.636
546.393
545.124
543.822
542.481
541.094
539.622
538.269
535.832
538.21
539.126
538.655
535.196
532.76
534.413
875.224
1112.91
1323.79
1454.2
1460.62
1458.08
1463.01
1273.53
1183.81
1154.59
1144.69
1140.7
1138.15
1135.37
1132.05
1128.39
1124.56
1120.61
1116.51
1112.21
1107.68
1102.88
1097.77
1092.33
1086.5
1080.24
1073.51
1066.26
1058.45
1050.01
1040.92
1031.11
1020.57
1009.25
997.155
984.259
970.552
956.058
940.812
924.84
908.201
890.967
873.205
855.011
836.472
817.696
798.782
779.84
760.984
742.32
723.961
706.021
688.618
671.876
655.924
640.914
627.02
614.442
603.427
593.982
586.68
581.447
577.654
574.779
572.48
570.552
568.866
567.346
565.941
564.615
563.346
562.118
560.917
559.735
558.566
557.405
556.247
555.089
553.928
552.762
551.589
550.405
549.21
548.001
546.773
545.523
544.248
542.942
541.596
540.205
538.812
536.648
537.34
539.437
540.447
539.901
535.986
532.901
534.307
876.751
1108.49
1386.58
1456.55
1461.45
1458.82
1464.67
1254.31
1174.55
1151.24
1143.26
1139.82
1137.39
1134.61
1131.3
1127.7
1123.97
1120.13
1116.15
1111.98
1107.6
1102.95
1098.01
1092.75
1087.12
1081.08
1074.58
1067.58
1060.03
1051.87
1043.06
1033.56
1023.31
1012.29
1000.49
987.875
974.447
960.201
945.176
929.402
912.921
895.809
878.13
859.978
841.438
822.621
803.627
784.57
765.558
746.709
728.133
709.945
692.267
675.221
658.938
643.565
629.269
616.246
604.745
594.858
586.9
581.216
577.171
574.169
571.812
569.855
568.154
566.623
565.209
563.876
562.6
561.363
560.156
558.967
557.79
556.621
555.455
554.289
553.12
551.946
550.765
549.573
548.371
547.153
545.918
544.662
543.381
542.067
540.73
539.304
537.826
539.234
539.962
541.117
541.869
541.294
536.804
533.073
534.214
878.081
1116.66
1425.02
1462.32
1460.89
1460.89
1391.84
1229.12
1167.51
1148.66
1142.07
1139.1
1136.74
1133.93
1130.63
1127.11
1123.49
1119.77
1115.91
1111.88
1107.64
1103.17
1098.41
1093.35
1087.93
1082.13
1075.88
1069.15
1061.88
1054.04
1045.55
1036.38
1026.47
1015.8
1004.33
992.048
978.935
964.985
950.222
934.682
918.4
901.435
883.866
865.771
847.248
828.395
809.322
790.141
770.963
751.91
733.093
714.631
696.647
679.264
662.609
646.828
632.086
618.57
606.519
596.117
587.448
581.165
576.779
573.607
571.169
569.174
567.455
565.913
564.491
563.15
561.865
560.622
559.406
558.209
557.025
555.848
554.674
553.499
552.322
551.14
549.95
548.75
547.54
546.314
545.072
543.811
542.521
541.218
539.817
538.652
536.027
540.865
542.774
543.25
543.457
542.804
537.656
533.265
534.131
879.379
1125.4
1433.87
1464.74
1460.86