/*--------------------------------*- C++ -*----------------------------------*\
  =========                 |
  \\      /  F ield         | OpenFOAM: The Open Source CFD Toolbox
   \\    /   O peration     | Website:  https://openfoam.org
    \\  /    A nd           | Version:  9
     \\/     M anipulation  |
\*---------------------------------------------------------------------------*/
FoamFile
{
    format      ascii;
    class       volVectorField;
    location    "1500";
    object      U;
}
// * * * * * * * * * * * * * * * * * * * * * * * * * * * * * * * * * * * * * //

dimensions      [0 1 -1 0 0 0 0];

internalField   nonuniform List<vector> 
13446
(
(1.15161 -1.32699e-05 -1.8452e-19)
(1.15161 -1.27867e-05 1.16572e-19)
(1.15164 -3.81277e-05 8.19976e-20)
(1.15161 -1.22991e-05 -7.19294e-20)
(1.15163 -3.68141e-05 -2.34972e-19)
(1.15165 -6.27397e-05 5.84461e-20)
(1.15166 -8.96288e-05 6.28487e-20)
(1.15167 -0.000117091 -8.2823e-20)
(1.15161 -1.18062e-05 7.21413e-20)
(1.15163 -3.54698e-05 2.53349e-19)
(1.15164 -6.04648e-05 0)
(1.15165 -8.64091e-05 6.08301e-22)
(1.15166 -0.000112949 6.81334e-20)
(1.15166 -0.000140229 9.01516e-20)
(1.15161 -1.13104e-05 -4.92246e-20)
(1.15163 -3.4095e-05 -9.98612e-20)
(1.15164 -5.81419e-05 -3.71555e-23)
(1.15165 -8.31207e-05 -6.46293e-20)
(1.15165 -0.000108711 -6.88927e-20)
(1.15165 -0.000135043 9.25008e-20)
(1.15165 -0.000162251 0)
(1.15161 -1.08095e-05 0)
(1.15162 -3.26916e-05 -1.32079e-19)
(1.15163 -5.57736e-05 1.55234e-20)
(1.15164 -7.97654e-05 0)
(1.15165 -0.000104379 0)
(1.15165 -0.000129733 -1.50507e-19)
(1.15164 -0.000155953 -2.02181e-20)
(1.15164 -0.000183125 2.14379e-20)
(1.15163 -0.000211353 1.16273e-20)
(1.15162 -0.000240771 -1.23264e-20)
(1.1516 -0.000271533 3.96335e-20)
(1.15159 -0.000303811 7.14346e-20)
(1.15157 -0.000337796 -4.66834e-20)
(1.15154 -0.000373704 4.22996e-20)
(1.15152 -0.000411771 4.54152e-20)
(1.15149 -0.000452263 9.93167e-21)
(1.15146 -0.000495475 -8.48985e-20)
(1.15143 -0.000541732 8.10559e-20)
(1.15139 -0.0005914 1.2751e-20)
(1.15135 -0.000644882 -4.72376e-20)
(1.15131 -0.000702628 -2.27158e-20)
(1.15126 -0.000765134 0)
(1.15121 -0.000832952 0)
(1.15115 -0.000906691 4.84868e-20)
(1.1511 -0.000987022 -6.35814e-20)
(1.15103 -0.00107468 1.74558e-20)
(1.15097 -0.00117049 -6.86652e-21)
(1.1509 -0.00127534 0)
(1.15082 -0.00139021 0)
(1.15074 -0.00151617 -2.58583e-20)
(1.15065 -0.00165439 2.88965e-20)
(1.15161 -1.03049e-05 0)
(1.15162 -3.12597e-05 2.23708e-19)
(1.15163 -5.33599e-05 -4.33347e-23)
(1.15164 -7.63457e-05 8.46111e-20)
(1.15164 -9.99594e-05 1.80542e-20)
(1.15164 -0.000124305 5.7349e-20)
(1.15163 -0.000149507 -8.24958e-20)
(1.15163 -0.000175649 -1.10651e-20)
(1.15162 -0.000202827 -3.5664e-20)
(1.1516 -0.000231172 0)
(1.15159 -0.000260834 1.3751e-20)
(1.15157 -0.000291978 -2.94063e-20)
(1.15155 -0.000324792 1.42543e-19)
(1.15153 -0.000359484 -6.81642e-20)
(1.1515 -0.000396286 -3.68795e-20)
(1.15147 -0.000435456 1.01739e-20)
(1.15144 -0.000477284 -2.23659e-20)
(1.1514 -0.000522088 -3.53939e-20)
(1.15136 -0.000570224 1.30865e-20)
(1.15132 -0.000622088 -7.00918e-20)
(1.15128 -0.000678117 3.82287e-20)
(1.15123 -0.000738797 2.55978e-22)
(1.15117 -0.000804669 3.7229e-20)
(1.15112 -0.000876323 -9.87743e-21)
(1.15106 -0.000954416 0)
(1.15099 -0.00103967 -2.43666e-20)
(1.15092 -0.00113288 2.62424e-20)
(1.15085 -0.00123492 3.69234e-20)
(1.15076 -0.00134674 -7.88783e-21)
(1.15068 -0.00146938 3.49833e-20)
(1.15058 -0.00160399 -3.85881e-20)
(1.15048 -0.00175179 -4.87225e-20)
(1.15038 -0.00191415 2.32987e-20)
(1.11394 -0.0617059 -7.27837e-21)
(1.11119 -0.0666745 0)
(1.10831 -0.0720751 0)
(1.10531 -0.077957 -4.43729e-20)
(1.10221 -0.0843813 0)
(1.09902 -0.0914124 -5.59751e-20)
(1.09579 -0.0991334 2.93899e-20)
(1.09256 -0.10763 0)
(1.08939 -0.116998 -9.45575e-21)
(1.08637 -0.12737 2.0374e-20)
(1.08363 -0.138859 -5.70991e-20)
(1.08134 -0.151621 -4.96798e-20)
(1.07975 -0.165762 0)
(1.07911 -0.181514 6.24441e-21)
(1.07999 -0.198746 1.48231e-20)
(1.08262 -0.217971 9.13193e-21)
(1.08828 -0.238027 2.04713e-20)
(1.09644 -0.260754 -2.90697e-20)
(1.11073 -0.281044 2.42666e-22)
(1.12603 -0.306625 5.95257e-21)
(1.15464 -0.319141 -2.39074e-21)
(1.17301 -0.347503 2.45015e-21)
(1.22595 -0.33602 0)
(1.22085 -0.370313 -5.35627e-20)
(1.34 -0.320195 -4.221e-21)
(1.07294 -0.325646 1.02486e-19)
(1.15161 -9.79645e-06 -2.60272e-20)
(1.15162 -2.98039e-05 -9.0904e-20)
(1.15163 -5.09045e-05 0)
(1.15163 -7.28635e-05 -6.86595e-20)
(1.15163 -9.5453e-05 -1.84416e-20)
(1.15163 -0.000118766 9.83368e-20)
(1.15163 -0.000142921 8.35869e-20)
(1.15162 -0.000167996 1.13088e-20)
(1.15161 -0.000194089 8.44587e-20)
(1.15159 -0.000221323 -1.30583e-20)
(1.15158 -0.000249841 1.38435e-20)
(1.15156 -0.000279804 0)
(1.15154 -0.000311395 -1.46176e-19)
(1.15151 -0.000344814 8.50936e-21)
(1.15148 -0.000380289 4.75844e-20)
(1.15145 -0.000418071 4.14126e-20)
(1.15142 -0.000458441 5.57977e-20)
(1.15138 -0.00050171 -1.20132e-20)
(1.15134 -0.000548226 3.98551e-20)
(1.1513 -0.000598374 4.29234e-20)
(1.15125 -0.000652581 0)
(1.1512 -0.00071132 0)
(1.15114 -0.000775117 -6.58398e-20)
(1.15108 -0.000844549 -5.18528e-20)
(1.15102 -0.000920258 1.15555e-20)
(1.15095 -0.00100294 6.08433e-21)
(1.15087 -0.00109338 6.73415e-21)
(1.15079 -0.00119241 -2.21687e-20)
(1.15071 -0.00130097 2.54745e-20)
(1.15062 -0.00142007 4.65516e-20)
(1.15052 -0.00155081 -9.95523e-21)
(1.15041 -0.0016944 -5.7457e-22)
(1.15029 -0.00185215 0)
(1.15017 -0.00202547 -7.81789e-22)
(1.11474 -0.0555837 0)
(1.11197 -0.0600628 8.25956e-21)
(1.10906 -0.0649268 -8.78686e-21)
(1.10599 -0.0702193 -3.13765e-20)
(1.10279 -0.0759923 3.37632e-20)
(1.09946 -0.0823073 -6.68584e-21)
(1.09602 -0.0892299 6.38813e-20)
(1.09249 -0.0968403 -4.19564e-20)
(1.08892 -0.105233 -2.85864e-20)
(1.08536 -0.114514 4.16587e-20)
(1.08189 -0.124816 3.47248e-20)
(1.07863 -0.136271 5.87981e-20)
(1.07573 -0.149046 -4.33389e-21)
(1.07344 -0.163279 -2.23634e-20)
(1.07201 -0.179224 -3.81823e-20)
(1.07197 -0.196824 -3.50171e-20)
(1.0736 -0.216602 3.85554e-20)
(1.07821 -0.237563 -2.08895e-20)
(1.08534 -0.261458 1.46067e-20)
(1.09877 -0.283527 -5.55042e-22)
(1.11348 -0.311087 2.33985e-21)
(1.1423 -0.326258 -1.39474e-21)
(1.16119 -0.357313 0)
(1.21662 -0.347892 5.46235e-21)
(1.21323 -0.3854 4.8857e-20)
(1.33739 -0.333076 4.31652e-21)
(1.07344 -0.342595 -9.72929e-20)
(1.15161 -9.28477e-06 0)
(1.15162 -2.83224e-05 -1.40461e-19)
(1.15162 -4.84068e-05 8.28945e-20)
(1.15163 -6.93219e-05 0)
(1.15163 -9.08646e-05 0)
(1.15162 -0.000113119 -1.00065e-19)
(1.15162 -0.000136196 -2.0798e-22)
(1.15161 -0.000160175 2.28689e-20)
(1.1516 -0.000185148 3.97689e-22)
(1.15158 -0.000211232 0)
(1.15157 -0.000238565 0)
(1.15155 -0.000267303 -1.55342e-20)
(1.15152 -0.00029762 8.26117e-20)
(1.1515 -0.000329713 9.08635e-21)
(1.15147 -0.000363801 -4.8363e-20)
(1.15144 -0.00040013 -4.20065e-20)
(1.1514 -0.000438972 1.16271e-20)
(1.15136 -0.000480629 -1.23263e-20)
(1.15132 -0.000525439 6.52331e-22)
(1.15127 -0.000573777 0)
(1.15122 -0.000626059 -3.26282e-20)
(1.15117 -0.000682745 0)
(1.15111 -0.000744345 3.85577e-20)
(1.15105 -0.000811423 3.14235e-20)
(1.15098 -0.000884599 -3.56777e-20)
(1.15091 -0.000964554 -6.56286e-21)
(1.15083 -0.00105204 6.95829e-21)
(1.15075 -0.00114788 0)
(1.15065 -0.00125299 -6.89605e-20)
(1.15056 -0.00136832 -3.76948e-20)
(1.15045 -0.00149497 0)
(1.15034 -0.00163409 5.27137e-20)
(1.15022 -0.00178697 -6.34428e-21)
(1.15009 -0.00195495 2.10299e-20)
(1.14994 -0.00213953 -3.28695e-20)
(1.14979 -0.00234232 -2.74832e-20)
(1.11571 -0.0499621 -7.89124e-20)
(1.11296 -0.0539942 -1.45029e-20)
(1.11006 -0.058368 -8.78025e-21)
(1.10698 -0.0631233 -3.00079e-20)
(1.10375 -0.0683029 4.25616e-20)
(1.10035 -0.0739573 -3.76872e-20)
(1.09679 -0.0801494 -1.35063e-20)
(1.09309 -0.0869472 -8.02703e-21)
(1.08928 -0.0944351 4.26408e-20)
(1.08537 -0.102709 3.80594e-20)
(1.08142 -0.111879 -3.11656e-20)
(1.0775 -0.122084 -1.08302e-19)
(1.07372 -0.133469 0)
(1.07021 -0.146217 6.28563e-20)
(1.0672 -0.160498 2.20454e-20)
(1.06493 -0.176576 3.12933e-20)
(1.06393 -0.194474 0)
(1.06449 -0.214734 -2.75402e-20)
(1.06793 -0.236532 -4.2177e-21)
(1.07385 -0.261542 -1.5039e-20)
(1.08618 -0.28538 1.43573e-21)
(1.10004 -0.315007 -1.46937e-21)
(1.12878 -0.333029 -4.74039e-22)
(1.14797 -0.367101 0)
(1.20589 -0.360167 0)
(1.20414 -0.401452 0)
(1.3339 -0.346742 0)
(1.07252 -0.36071 0)
(1.15161 -8.76869e-06 0)
(1.15161 -2.68168e-05 1.10927e-19)
(1.15162 -4.58713e-05 1.73383e-20)
(1.15162 -6.57257e-05 9.03367e-20)
(1.15162 -8.6199e-05 1.25508e-22)
(1.15162 -0.000107373 1.67973e-22)
(1.15161 -0.000129346 -2.1855e-20)
(1.1516 -0.000152198 -1.18366e-20)
(1.15159 -0.000176015 1.29307e-20)
(1.15157 -0.000200913 0)
(1.15155 -0.000227021 0)
(1.15153 -0.000254489 0)
(1.15151 -0.000283485 -1.72066e-20)
(1.15148 -0.0003142 8.92507e-21)
(1.15145 -0.000346845 1.99793e-20)
(1.15142 -0.000381657 -1.07107e-20)
(1.15138 -0.000418901 5.92652e-20)
(1.15134 -0.000458871 -6.41875e-20)
(1.1513 -0.000501893 -5.55605e-20)
(1.15125 -0.000548332 0)
(1.1512 -0.000598591 3.3137e-20)
(1.15114 -0.000653116 0)
(1.15108 -0.000712404 0)
(1.15102 -0.000776998 4.426e-20)
(1.15094 -0.000847503 4.79206e-20)
(1.15087 -0.000924579 -6.78255e-21)
(1.15079 -0.00100895 3.67402e-20)
(1.1507 -0.00110143 0)
(1.1506 -0.00120287 3.53775e-20)
(1.1505 -0.00131424 0)
(1.15039 -0.00143656 0)
(1.15027 -0.00157098 -2.40143e-20)
(1.15014 -0.00171872 0)
(1.15 -0.00188109 3.80836e-20)
(1.14985 -0.00205954 -9.03874e-21)
(1.14969 -0.00225562 4.63445e-20)
(1.14952 -0.00247098 -1.13427e-20)
(1.12975 -0.0280519 3.38714e-20)
(1.12795 -0.0303486 1.23019e-20)
(1.12601 -0.0328219 2.96116e-20)
(1.12394 -0.0354866 2.51823e-20)
(1.12172 -0.0383597 -6.60248e-22)
(1.11935 -0.0414603 1.04179e-20)
(1.11681 -0.0448099 3.72791e-20)
(1.11412 -0.0484355 1.25037e-19)
(1.11125 -0.0523636 0)
(1.10821 -0.0566282 3.6733e-20)
(1.10498 -0.0612668 8.16672e-20)
(1.10157 -0.0663257 0)
(1.09798 -0.0718536 5.11894e-20)
(1.0942 -0.0779142 0)
(1.09025 -0.0845785 2.55078e-20)
(1.08615 -0.0919281 -3.88515e-20)
(1.08191 -0.100066 6.40429e-20)
(1.07758 -0.109104 2.4685e-20)
(1.07321 -0.119188 9.73628e-21)
(1.06891 -0.130467 -7.31133e-21)
(1.06477 -0.143144 7.77342e-21)
(1.06103 -0.157417 -3.55074e-20)
(1.05791 -0.173573 9.08649e-21)
(1.05591 -0.1917 -9.64169e-21)
(1.05532 -0.212356 0)
(1.05746 -0.234899 -4.07024e-20)
(1.06202 -0.260965 3.38747e-20)
(1.07301 -0.28654 0)
(1.08571 -0.318282 -5.41458e-22)
(1.11408 -0.339323 6.14161e-23)
(1.13319 -0.376751 2.85853e-21)
(1.19357 -0.372757 -2.92109e-21)
(1.19342 -0.41856 0)
(1.32979 -0.36145 6.40188e-20)
(1.07064 -0.380809 -5.21926e-21)
(1.1516 -8.25005e-06 1.11258e-19)
(1.15161 -2.529e-05 1.62976e-20)
(1.15162 -4.32974e-05 -8.62935e-20)
(1.15162 -6.20744e-05 -7.34963e-20)
(1.15162 -8.14614e-05 1.97396e-20)
(1.15161 -0.000101527 1.75383e-22)
(1.1516 -0.000122373 -1.12574e-19)
(1.15159 -0.000144069 1.21239e-20)
(1.15158 -0.0001667 -1.24873e-20)
(1.15156 -0.000190377 0)
(1.15154 -0.000215222 0)
(1.15152 -0.000241378 -1.63179e-20)
(1.1515 -0.000269008 1.72987e-20)
(1.15147 -0.000298293 -3.7944e-20)
(1.15144 -0.00032944 -4.11404e-20)
(1.1514 -0.000362676 0)
(1.15136 -0.000398257 -4.81267e-20)
(1.15132 -0.000436467 5.24011e-20)
(1.15128 -0.000477623 0)
(1.15123 -0.000522076 0)
(1.15117 -0.000570217 -4.32587e-20)
(1.15111 -0.000622478 1.88287e-20)
(1.15105 -0.000679339 -5.16729e-20)
(1.15098 -0.000741327 -9.06428e-20)
(1.15091 -0.000809027 2.51133e-20)
(1.15083 -0.000883078 0)
(1.15074 -0.000964183 -6.05933e-20)
(1.15065 -0.00105312 0)
(1.15055 -0.00115072 0)
(1.15045 -0.00125792 4.13936e-20)
(1.15033 -0.00137571 0)
(1.1502 -0.00150519 3.19908e-20)
(1.15007 -0.00164754 -6.86415e-21)
(1.14992 -0.00180404 -3.08972e-20)
(1.14977 -0.00197608 -8.52915e-22)
(1.1496 -0.00216514 -1.0007e-20)
(1.14941 -0.00237284 7.55903e-20)
(1.14921 -0.0026009 -1.8422e-20)
(1.149 -0.00285116 2.02602e-20)
(1.13056 -0.0250268 -5.11976e-20)
(1.12882 -0.0270931 -3.48485e-20)
(1.12694 -0.0293181 1.39639e-20)
(1.12494 -0.0317144 -1.37173e-20)
(1.12279 -0.0342979 -3.43605e-20)
(1.12048 -0.0370847 -5.09939e-20)
(1.11802 -0.0400945 -7.87509e-22)
(1.11539 -0.0433489 -3.83033e-20)
(1.11258 -0.0468721 -5.78592e-20)
(1.10959 -0.0506915 -8.68071e-21)
(1.10642 -0.0548416 -1.8274e-20)
(1.10304 -0.0593594 -5.28912e-20)
(1.09946 -0.064292 6.26691e-20)
(1.09568 -0.069689 -1.34849e-20)
(1.09169 -0.0756098 -8.09849e-21)
(1.0875 -0.0821242 -1.69194e-20)
(1.08311 -0.0893235 7.01097e-20)
(1.07855 -0.0973068 -8.96907e-20)
(1.07384 -0.106195 -3.60912e-20)
(1.06903 -0.116126 4.08269e-20)
(1.0642 -0.127274 0)
(1.05945 -0.139846 -3.53434e-20)
(1.05497 -0.154054 6.8355e-21)
(1.05098 -0.170216 3.19479e-20)
(1.04793 -0.188487 -4.4791e-20)
(1.04612 -0.209455 -5.37721e-21)
(1.04686 -0.232651 4.71456e-20)
(1.04989 -0.259685 -1.892e-20)
(1.05931 -0.28693 0)
(1.07054 -0.320806 -1.31867e-20)
(1.09815 -0.345007 5.90564e-21)
(1.11671 -0.386102 0)
(1.17946 -0.385551 2.31785e-20)
(1.18054 -0.436777 0)
(1.32432 -0.377236 -3.10475e-20)
(1.06909 -0.403982 0)
(1.1516 -7.72884e-06 -2.41051e-19)
(1.15161 -2.37431e-05 -1.66746e-20)
(1.15161 -4.06894e-05 0)
(1.15161 -5.83734e-05 0)
(1.15161 -7.66529e-05 0)
(1.15161 -9.55928e-05 2.16285e-20)
(1.1516 -0.000115284 6.89089e-20)
(1.15159 -0.000135798 -1.24282e-20)
(1.15157 -0.000157213 2.68811e-20)
(1.15155 -0.000179633 -2.85372e-20)
(1.15153 -0.000203179 1.52417e-20)
(1.15151 -0.000227984 1.67436e-20)
(1.15149 -0.000254204 -5.37126e-20)
(1.15146 -0.000282013 8.73893e-20)
(1.15142 -0.000311609 -1.07504e-20)
(1.15139 -0.000343211 4.58835e-20)
(1.15135 -0.000377066 0)
(1.1513 -0.000413447 5.44131e-20)
(1.15126 -0.00045266 0)
(1.15121 -0.000495044 0)
(1.15115 -0.000540977 3.51562e-20)
(1.15109 -0.000590875 9.8684e-21)
(1.15102 -0.000645202 3.18181e-20)
(1.15095 -0.000704468 9.35463e-20)
(1.15088 -0.000769234 -2.55706e-20)
(1.15079 -0.000840121 0)
(1.15071 -0.000917805 3.11006e-20)
(1.15061 -0.00100303 -8.86322e-21)
(1.1505 -0.00109662 -2.92932e-20)
(1.15039 -0.00119946 7.66752e-22)
(1.15027 -0.00131251 2.38311e-20)
(1.15014 -0.00143683 -3.27146e-20)
(1.15 -0.00157356 7.13834e-21)
(1.14985 -0.00172394 8.36521e-21)
(1.14968 -0.00188928 1.77145e-20)
(1.1495 -0.00207106 -3.11982e-20)
(1.14931 -0.00227079 6.41717e-21)
(1.1491 -0.00249015 1.23754e-20)
(1.14888 -0.00273092 -4.09602e-22)
(1.14863 -0.002995 3.12009e-20)
(1.14837 -0.00328442 -2.68279e-20)
(1.13813 -0.0147955 1.01895e-20)
(1.13698 -0.0160751 -5.48054e-20)
(1.13574 -0.0174541 -5.20206e-20)
(1.13439 -0.0189394 -2.97096e-20)
(1.13295 -0.0205389 -3.27856e-20)
(1.13139 -0.0222613 0)
(1.12972 -0.0241163 0)
(1.12792 -0.0261137 0)
(1.12598 -0.0282652 0)
(1.1239 -0.0305847 -3.18183e-20)
(1.12168 -0.0330856 -2.79689e-20)
(1.11929 -0.0357844 7.40265e-20)
(1.11674 -0.0387012 -4.88076e-20)
(1.11401 -0.0418557 1.41721e-20)
(1.1111 -0.0452734 -1.50711e-20)
(1.10799 -0.0489821 3.60214e-20)
(1.10468 -0.0530156 1.04186e-20)
(1.10116 -0.0574083 4.72807e-20)
(1.09742 -0.0622056 -6.35062e-20)
(1.09346 -0.0674602 -5.99151e-20)
(1.08926 -0.0732332 5.92734e-20)
(1.08483 -0.0795942 -5.58297e-22)
(1.08017 -0.0866333 -3.12404e-20)
(1.07529 -0.0944458 4.67613e-20)
(1.07021 -0.103154 -5.49319e-20)
(1.06496 -0.112913 6.15661e-20)
(1.05961 -0.123899 -6.8721e-20)
(1.05424 -0.136322 2.65673e-20)
(1.04902 -0.15042 3.91744e-20)
(1.04414 -0.166524 -2.06454e-20)
(1.04002 -0.184869 2.19686e-20)
(1.03695 -0.206056 1.25454e-20)
(1.03617 -0.229776 6.07416e-21)
(1.03751 -0.257662 -6.41229e-21)
(1.04512 -0.286488 -2.88743e-20)
(1.05451 -0.322444 1.83312e-20)
(1.08094 -0.349915 -5.56771e-21)
(1.09849 -0.39499 -1.81183e-21)
(1.16332 -0.398434 -7.9622e-21)
(1.16524 -0.456004 -4.57164e-21)
(1.31752 -0.394299 -3.05616e-20)
(1.06673 -0.431048 0)
(1.1516 -7.20402e-06 1.15804e-19)
(1.15161 -2.21761e-05 0)
(1.15161 -3.80484e-05 1.82169e-20)
(1.15161 -5.46247e-05 -3.87451e-20)
(1.15161 -7.17782e-05 2.05977e-20)
(1.1516 -8.95716e-05 0)
(1.15159 -0.000108086 0)
(1.15158 -0.000127391 5.08075e-20)
(1.15156 -0.000147564 -5.42358e-20)
(1.15155 -0.000168698 -7.34644e-20)
(1.15153 -0.000190909 1.56443e-20)
(1.1515 -0.000214323 1.71945e-20)
(1.15147 -0.000239091 -1.84872e-20)
(1.15144 -0.000265378 -3.97033e-20)
(1.15141 -0.000293373 4.30635e-20)
(1.15137 -0.000323286 -4.67831e-20)
(1.15133 -0.000355354 -3.83671e-20)
(1.15129 -0.00038984 -8.33773e-20)
(1.15124 -0.000427037 1.50005e-20)
(1.15119 -0.000467273 -2.49686e-20)
(1.15113 -0.000510912 -1.82431e-20)
(1.15107 -0.000558352 -3.48276e-22)
(1.151 -0.000610041 1.07928e-20)
(1.15092 -0.000666469 5.90321e-22)
(1.15085 -0.00072818 0)
(1.15076 -0.000795767 0)
(1.15067 -0.000869887 2.43747e-20)
(1.15057 -0.000951258 1.79781e-20)
(1.15046 -0.00104066 1.95271e-20)
(1.15034 -0.00113896 -7.74569e-20)
(1.15022 -0.00124707 -3.05857e-20)
(1.15008 -0.00136602 3.41997e-20)
(1.14993 -0.00149691 -2.28846e-20)
(1.14978 -0.00164092 4.38353e-22)
(1.1496 -0.00179932 2.9048e-20)
(1.14942 -0.00197353 7.38622e-20)
(1.14922 -0.00216501 -3.59113e-20)
(1.149 -0.00237538 6.86373e-21)
(1.14876 -0.00260633 -1.4993e-20)
(1.14851 -0.0028597 8.18069e-21)
(1.14823 -0.00313745 3.83759e-20)
(1.14793 -0.00344167 4.32813e-20)
(1.1476 -0.00377455 2.37578e-20)
(1.14725 -0.00413847 2.76226e-20)
(1.14686 -0.00453595 -2.23785e-20)
(1.1376 -0.0142048 -7.55156e-22)
(1.13641 -0.0154369 1.14076e-20)
(1.13512 -0.0167652 2.56553e-20)
(1.13374 -0.0181963 3.02964e-20)
(1.13225 -0.0197381 9.13945e-21)
(1.13064 -0.0213989 3.10995e-20)
(1.12891 -0.0231878 0)
(1.12705 -0.0251153 0)
(1.12505 -0.0271925 0)
(1.12291 -0.0294323 0)
(1.12061 -0.0318492 -1.23237e-21)
(1.11815 -0.0344589 -5.51806e-20)
(1.11551 -0.0372802 1.13397e-19)
(1.11269 -0.0403345 0)
(1.10967 -0.0436447 0)
(1.10645 -0.0472384 -2.70583e-20)
(1.10301 -0.0511496 -2.1289e-20)
(1.09935 -0.0554133 -2.32644e-20)
(1.09545 -0.0600732 -2.74723e-20)
(1.09131 -0.0651821 7.61865e-20)
(1.08691 -0.0707969 -7.83151e-20)
(1.08225 -0.0769917 5.0328e-20)
(1.07732 -0.0838542 -4.59654e-20)
(1.07212 -0.0914829 -6.50057e-20)
(1.06668 -0.100004 6.99642e-20)
(1.061 -0.109565 -7.92829e-20)
(1.05514 -0.12035 9.68371e-20)
(1.04916 -0.132582 -1.99942e-20)
(1.0432 -0.146521 -3.86913e-22)
(1.03742 -0.16251 6.19798e-20)
(1.03221 -0.180835 -6.75589e-20)
(1.02782 -0.202134 1.39343e-20)
(1.02546 -0.22626 7.00335e-21)
(1.02495 -0.25487 -3.11466e-20)
(1.03048 -0.285113 1.76616e-20)
(1.03768 -0.323104 -2.40483e-20)
(1.06246 -0.353881 -6.63257e-22)
(1.07833 -0.403213 6.81873e-22)
(1.14493 -0.411217 -1.37942e-20)
(1.14713 -0.476199 2.77164e-20)
(1.30861 -0.412928 0)
(1.06179 -0.46222 6.8686e-21)
(1.1516 -6.67695e-06 0)
(1.15161 -2.05911e-05 0)
(1.15161 -3.53758e-05 0)
(1.15161 -5.08308e-05 9.96132e-20)
(1.1516 -6.6843e-05 -2.11413e-20)
(1.1516 -8.34697e-05 -9.08686e-20)
(1.15159 -0.000100787 1.22011e-20)
(1.15157 -0.000118861 -7.79072e-20)
(1.15156 -0.000137761 1.38826e-20)
(1.15154 -0.000157578 5.9942e-20)
(1.15152 -0.000178421 0)
(1.15149 -0.000200411 -5.2498e-20)
(1.15146 -0.000223686 2.85321e-20)
(1.15143 -0.000248408 -2.05111e-20)
(1.1514 -0.000274753 -3.36293e-20)
(1.15136 -0.000302925 -4.85117e-20)
(1.15132 -0.00033315 6.57687e-20)
(1.15127 -0.000365677 4.1833e-22)
(1.15122 -0.000400791 -2.34181e-20)
(1.15117 -0.000438803 1.68554e-20)
(1.15111 -0.000480062 3.80735e-20)
(1.15104 -0.000524954 -5.15889e-20)
(1.15097 -0.000573905 1.15591e-20)
(1.1509 -0.00062739 -3.0409e-20)
(1.15082 -0.000685928 -6.7509e-21)
(1.15073 -0.000750093 -7.76334e-21)
(1.15063 -0.00082051 -2.5125e-20)
(1.15053 -0.000897871 9.52033e-21)
(1.15042 -0.000982927 -1.00944e-20)
(1.1503 -0.0010765 6.85155e-20)
(1.15016 -0.0011795 -6.53408e-21)
(1.15002 -0.00129288 -2.11837e-20)
(1.14987 -0.00141771 3.13369e-20)
(1.14971 -0.00155512 0)
(1.14953 -0.00170635 -3.90978e-20)
(1.14933 -0.00187273 -5.51473e-20)
(1.14912 -0.00205568 1.15386e-20)
(1.1489 -0.00225676 0)
(1.14865 -0.00247758 -3.16454e-20)
(1.14839 -0.00271993 0)
(1.1481 -0.00298568 9.8215e-22)
(1.14778 -0.00327682 -4.41931e-20)
(1.14744 -0.00359549 0)
(1.14707 -0.00394395 -2.8205e-20)
(1.14667 -0.00432463 3.28025e-20)
(1.14624 -0.00474004 0)
(1.14577 -0.00519287 5.29634e-20)
(1.13709 -0.0136016 0)
(1.13586 -0.0147857 1.29262e-20)
(1.13454 -0.0160624 -2.19558e-20)
(1.13311 -0.0174388 -2.50799e-20)
(1.13157 -0.0189221 0)
(1.12992 -0.0205204 -3.06803e-20)
(1.12813 -0.0222431 -4.81422e-20)
(1.12622 -0.0240997 -6.92877e-20)
(1.12416 -0.0261011 -4.01083e-20)
(1.12195 -0.0282607 1.80079e-20)
(1.11958 -0.0305921 4.10896e-20)
(1.11704 -0.033111 -2.34265e-20)
(1.11432 -0.0358357 -3.95845e-20)
(1.11141 -0.0387854 0)
(1.10829 -0.0419858 3.50884e-20)
(1.10496 -0.045462 5.01511e-20)
(1.1014 -0.0492472 -5.6317e-20)
(1.0976 -0.0533774 -6.48994e-20)
(1.09355 -0.057896 1.40278e-20)
(1.08923 -0.0628501 -6.67817e-20)
(1.08463 -0.0683017 -4.75318e-20)
(1.07974 -0.0743249 1.17292e-20)
(1.07456 -0.0810001 3.45976e-20)
(1.06906 -0.088431 6.6131e-20)
(1.06326 -0.0967396 -6.21629e-20)
(1.05716 -0.106082 -7.00369e-20)
(1.0508 -0.116644 2.9469e-20)
(1.04422 -0.128657 1.05008e-20)
(1.03752 -0.142377 1.21846e-20)
(1.03085 -0.158184 -7.74266e-20)
(1.02452 -0.176405 -4.20944e-21)
(1.01878 -0.197708 7.96966e-20)
(1.01475 -0.222106 0)
(1.01226 -0.251268 6.62009e-20)
(1.01548 -0.282778 -7.25245e-21)
(1.02012 -0.322679 3.22735e-20)
(1.04272 -0.356729 0)
(1.05619 -0.410545 4.21453e-22)
(1.12409 -0.423627 -4.34333e-22)
(1.12545 -0.497144 -8.9871e-21)
(1.29671 -0.43303 6.53712e-21)
(1.05509 -0.49791 5.81575e-20)
(1.1516 -6.1476e-06 6.1198e-20)
(1.15161 -1.89902e-05 -7.2191e-20)
(1.15161 -3.26745e-05 -1.91374e-20)
(1.1516 -4.69943e-05 -8.14762e-20)
(1.1516 -6.18498e-05 0)
(1.15159 -7.72922e-05 9.29193e-20)
(1.15158 -9.33921e-05 1.25407e-20)
(1.15157 -0.000110211 4.03079e-20)
(1.15155 -0.000127815 -1.44748e-20)
(1.15153 -0.00014629 -2.46141e-22)
(1.15151 -0.000165734 -5.02924e-20)
(1.15148 -0.000186262 7.17524e-20)
(1.15145 -0.000208008 9.84341e-21)
(1.15142 -0.000231121 -5.27415e-20)
(1.15139 -0.000255773 5.72276e-20)
(1.15135 -0.000282154 3.73087e-20)
(1.1513 -0.000310478 0)
(1.15126 -0.000340988 -2.9685e-20)
(1.15121 -0.000373951 -8.21631e-21)
(1.15115 -0.000409666 8.41088e-21)
(1.15109 -0.000448468 -3.86059e-20)
(1.15102 -0.000490725 8.51642e-20)
(1.15095 -0.000536847 1.19469e-20)
(1.15087 -0.000587285 -3.83221e-20)
(1.15079 -0.000642537 -7.27047e-21)
(1.1507 -0.000703154 3.93333e-20)
(1.1506 -0.000769737 0)
(1.15049 -0.000842948 -9.87321e-21)
(1.15037 -0.000923508 1.04684e-20)
(1.15025 -0.0010122 -2.35987e-20)
(1.15012 -0.0011099 0)
(1.14997 -0.00121752 7.57549e-21)
(1.14981 -0.00133608 -4.96875e-20)
(1.14964 -0.00146668 8.97224e-21)
(1.14946 -0.0016105 1.05984e-20)
(1.14925 -0.0017688 -2.26427e-20)
(1.14904 -0.00194297 4.58334e-20)
(1.1488 -0.00213448 -3.6459e-20)
(1.14855 -0.00234489 4.0803e-20)
(1.14827 -0.00257592 2.8303e-20)
(1.14797 -0.00282933 -5.18136e-20)
(1.14765 -0.00310707 1.13897e-20)
(1.14729 -0.00341117 0)
(1.14691 -0.00374381 0)
(1.1465 -0.0041073 -6.79464e-20)
(1.14605 -0.00450411 -3.90141e-20)
(1.14556 -0.0049368 -5.44667e-20)
(1.14503 -0.00540811 3.71731e-20)
(1.14446 -0.00592101 0)
(1.14383 -0.0064786 -8.33021e-21)
(1.14316 -0.00708406 -6.46804e-22)
(1.14243 -0.0077409 5.1101e-20)
(1.14164 -0.00845281 4.80808e-20)
(1.14078 -0.00922378 7.02385e-21)
(1.13985 -0.010058 -1.54672e-20)
(1.13885 -0.0109599 4.32008e-20)
(1.13777 -0.0119344 -3.96017e-20)
(1.1366 -0.0129865 -4.64935e-20)
(1.13534 -0.0141218 0)
(1.13397 -0.0153465 5.97857e-20)
(1.13251 -0.0166672 7.71464e-20)
(1.13092 -0.0180911 1.99741e-20)
(1.12922 -0.0196263 1.07588e-20)
(1.12739 -0.0212815 5.01269e-20)
(1.12542 -0.0230659 5.72269e-20)
(1.12331 -0.0249909 3.26599e-20)
(1.12103 -0.027069 0)
(1.1186 -0.029313 0)
(1.11598 -0.0317388 1.2759e-20)
(1.11318 -0.0343642 -2.81072e-20)
(1.11018 -0.0372101 8.02499e-20)
(1.10697 -0.0402977 -4.53196e-20)
(1.10353 -0.0436546 -3.08223e-20)
(1.09985 -0.0473117 4.64988e-20)
(1.09592 -0.0513032 -1.57709e-21)
(1.09172 -0.0556726 0)
(1.08723 -0.0604688 6.82886e-20)
(1.08244 -0.0657529 4.89394e-20)
(1.07733 -0.0715915 2.16577e-21)
(1.07188 -0.0780702 -1.22915e-20)
(1.06609 -0.0852928 0)
(1.05995 -0.0933774 -1.91197e-20)
(1.05344 -0.102478 1.26648e-19)
(1.04658 -0.112789 -2.96615e-20)
(1.03941 -0.124538 4.77367e-20)
(1.03199 -0.138005 2.70055e-20)
(1.02442 -0.153569 1.3992e-20)
(1.01699 -0.171602 -1.98362e-20)
(1.00987 -0.192799 -1.35765e-20)
(1.0041 -0.2173 0)
(0.99951 -0.246852 -4.50168e-20)
(1.00019 -0.279406 9.6484e-22)
(1.0019 -0.321034 9.18447e-21)
(1.02176 -0.358271 -2.40647e-21)
(1.03201 -0.416733 2.99581e-21)
(1.1006 -0.435365 -5.28015e-22)
(1.10007 -0.518504 -3.03988e-21)
(1.28206 -0.45445 -1.06207e-20)
(1.04268 -0.536381 -4.79259e-20)
(1.1516 -5.61597e-06 -6.25601e-20)
(1.1516 -1.7373e-05 1.29663e-19)
(1.1516 -2.99453e-05 1.96813e-20)
(1.1516 -4.31187e-05 2.10704e-20)
(1.1516 -5.68038e-05 8.99892e-20)
(1.15159 -7.10455e-05 -2.3864e-20)
(1.15158 -8.5909e-05 -5.14103e-20)
(1.15156 -0.000101452 -5.48967e-20)
(1.15154 -0.000117735 0)
(1.15152 -0.000134838 0)
(1.1515 -0.000152853 6.84319e-20)
(1.15147 -0.00017189 9.36301e-21)
(1.15145 -0.000192072 -9.9256e-21)
(1.15141 -0.000213539 4.33254e-20)
(1.15138 -0.000236453 -1.1955e-20)
(1.15134 -0.000260996 1.26739e-20)
(1.15129 -0.000287369 1.41923e-20)
(1.15124 -0.000315803 1.53547e-20)
(1.15119 -0.000346553 -2.49921e-20)
(1.15113 -0.000379904 -9.27666e-21)
(1.15107 -0.000416173 1.02044e-20)
(1.151 -0.000455714 -6.58531e-20)
(1.15093 -0.000498914 3.62197e-20)
(1.15085 -0.000546205 -6.81506e-21)
(1.15076 -0.000598067 7.22558e-21)
(1.15067 -0.00065502 -3.23866e-20)
(1.15057 -0.000717643 0)
(1.15046 -0.000786568 0)
(1.15034 -0.000862481 -1.13856e-20)
(1.15021 -0.000946139 -1.2789e-20)
(1.15007 -0.00103837 2.77009e-20)
(1.14992 -0.00114005 3.09064e-20)
(1.14975 -0.00125215 4.28041e-20)
(1.14958 -0.00137573 -9.34369e-21)
(1.14939 -0.00151191 -2.16443e-20)
(1.14918 -0.00166191 2.38501e-20)
(1.14895 -0.00182705 -3.37429e-20)
(1.14871 -0.00200873 3.74846e-20)
(1.14845 -0.00220847 0)
(1.14816 -0.00242786 -3.81573e-20)
(1.14785 -0.00266865 0)
(1.14752 -0.00293267 2.48442e-20)
(1.14715 -0.00322189 -7.19327e-21)
(1.14676 -0.00353837 7.62966e-21)
(1.14633 -0.00388432 3.5235e-20)
(1.14586 -0.00426211 3.99566e-20)
(1.14536 -0.00467426 0)
(1.14481 -0.00512335 -2.57595e-20)
(1.14422 -0.00561218 -7.69561e-21)
(1.14358 -0.00614384 8.16473e-21)
(1.14288 -0.00672133 9.97565e-21)
(1.14213 -0.00734806 -1.0585e-20)
(1.14132 -0.00802766 -4.92445e-20)
(1.14044 -0.00876391 -2.88122e-20)
(1.13948 -0.00956066 -3.2868e-20)
(1.13845 -0.0104225 3.75068e-20)
(1.13734 -0.0113539 1.0983e-20)
(1.13613 -0.0123599 7.22955e-20)
(1.13484 -0.0134461 3.40553e-20)
(1.13344 -0.0146183 -1.527e-20)
(1.13193 -0.0158827 -4.41308e-20)
(1.13031 -0.0172468 -4.0483e-20)
(1.12856 -0.0187178 4.74359e-20)
(1.12668 -0.0203044 -6.80476e-20)
(1.12466 -0.0220163 -1.61574e-20)
(1.12248 -0.0238642 9.04581e-21)
(1.12015 -0.0258595 7.08242e-22)
(1.11765 -0.0280156 -1.09685e-20)
(1.11496 -0.0303478 5.23988e-20)
(1.11208 -0.0328735 0)
(1.109 -0.0356114 -6.63575e-20)
(1.10569 -0.0385842 -3.88166e-20)
(1.10215 -0.0418179 0)
(1.09835 -0.0453421 5.03647e-20)
(1.09429 -0.049194 5.57825e-20)
(1.08995 -0.0534125 6.52548e-20)
(1.08529 -0.0580451 0)
(1.08032 -0.0631494 0)
(1.07499 -0.0687967 -3.42845e-20)
(1.0693 -0.0750722 4.14297e-20)
(1.06323 -0.0820716 0)
(1.05674 -0.0899175 4.98236e-20)
(1.04983 -0.0987613 -1.92604e-20)
(1.0425 -0.108792 0)
(1.03474 -0.120242 2.09267e-21)
(1.02661 -0.133404 -5.40342e-20)
(1.01816 -0.148667 1.57809e-20)
(1.00962 -0.16642 4.96468e-20)
(1.00112 -0.187401 -2.67658e-20)
(0.993574 -0.211868 -1.00412e-20)
(0.986786 -0.24161 0)
(0.984677 -0.27496 0)
(0.983114 -0.318061 -4.4397e-20)
(0.99959 -0.358279 2.37965e-20)
(1.00573 -0.421487 -1.96986e-21)
(1.07422 -0.446099 -1.67567e-21)
(1.07 -0.540051 -2.59133e-20)
(1.26352 -0.476896 1.64494e-20)
(1.02529 -0.578702 -1.11125e-20)
(1.1516 -5.08216e-06 6.45989e-20)
(1.1516 -1.57413e-05 -5.7067e-20)
(1.1516 -2.71908e-05 -2.02653e-20)
(1.1516 -3.92065e-05 -2.1699e-20)
(1.15159 -5.17067e-05 -8.07243e-20)
(1.15158 -6.47332e-05 2.46905e-20)
(1.15157 -7.83447e-05 9.25322e-20)
(1.15156 -9.25918e-05 0)
(1.15154 -0.000107534 0)
(1.15152 -0.000123241 -8.22547e-20)
(1.15149 -0.000139802 1.75355e-20)
(1.15147 -0.000157316 0)
(1.15144 -0.000175898 -4.14375e-20)
(1.1514 -0.000195682 4.49294e-20)
(1.15137 -0.000216817 -3.64675e-20)
(1.15132 -0.000239475 -1.30766e-20)
(1.15128 -0.000263848 0)
(1.15123 -0.000290152 0)
(1.15118 -0.00031863 2.55724e-20)
(1.15112 -0.00034955 9.02138e-21)
(1.15105 -0.000383213 1.05528e-20)
(1.15098 -0.000419957 -2.27969e-20)
(1.15091 -0.000460151 -3.78053e-20)
(1.15082 -0.000504207 2.77546e-20)
(1.15074 -0.000552576 3.06621e-20)
(1.15064 -0.000605757 2.52899e-20)
(1.15054 -0.000664302 -2.84422e-20)
(1.15042 -0.00072881 -4.17352e-20)
(1.1503 -0.000799938 -5.91467e-21)
(1.15017 -0.00087841 3.83625e-20)
(1.15002 -0.000965001 -7.15389e-20)
(1.14987 -0.00106057 -2.39111e-20)
(1.1497 -0.00116604 -4.51248e-20)
(1.14952 -0.0012824 3.96972e-20)
(1.14932 -0.00141074 3.31074e-20)
(1.14911 -0.00155221 5.06545e-20)
(1.14888 -0.00170808 0)
(1.14863 -0.00187969 -4.0241e-20)
(1.14835 -0.00206846 5.40408e-20)
(1.14806 -0.00227597 -9.80026e-21)
(1.14774 -0.00250384 0)
(1.14739 -0.00275384 7.18504e-21)
(1.14702 -0.00302784 2.9913e-20)
(1.14661 -0.00332783 -4.13493e-20)
(1.14617 -0.00365596 -4.75128e-20)
(1.14569 -0.00401441 1.02836e-20)
(1.14517 -0.00440561 -1.81256e-20)
(1.14461 -0.00483211 -3.43439e-20)
(1.144 -0.00529661 0)
(1.14334 -0.00580194 0)
(1.14262 -0.00635109 5.13568e-20)
(1.14185 -0.0069473 -5.76998e-20)
(1.14101 -0.00759396 0)
(1.1401 -0.0082948 -7.18731e-22)
(1.13913 -0.00905375 7.71281e-20)
(1.13807 -0.00987503 -4.78913e-20)
(1.13692 -0.010763 -4.4994e-20)
(1.13569 -0.0117225 -5.01393e-20)
(1.13436 -0.0127589 -2.86248e-20)
(1.13292 -0.0138779 -3.3485e-20)
(1.13138 -0.0150857 3.82365e-20)
(1.12971 -0.0163891 0)
(1.12792 -0.0177955 1.18586e-21)
(1.126 -0.0193134 4.09536e-20)
(1.12392 -0.0209517 4.72338e-20)
(1.1217 -0.022721 0)
(1.11931 -0.0246323 -4.2314e-20)
(1.11674 -0.0266992 4.82803e-20)
(1.11398 -0.0289362 1.31879e-21)
(1.11103 -0.0313584 4.75059e-20)