# Residuals   
# Time        	p             	Ux            	Uy            	k             	omega         	ReThetat      	gammaInt      
0             	N/A	N/A	N/A	N/A	N/A	N/A
1             	1.000000e+00	1.000000e+00	1.000000e+00	1.000000e+00	9.757147e-01	1.000000e+00	1.000000e+00
2             	1.267161e-01	1.832509e-01	2.767957e-01	4.806183e-01	6.303348e-01	2.002973e-01	3.127399e-02
3             	1.120149e-01	2.028703e-02	5.806944e-02	3.135421e-01	3.689637e-01	1.323981e-01	1.508628e-02
4             	2.900692e-01	1.302726e-02	3.280731e-02	2.318248e-01	2.598341e-01	9.394187e-02	1.139849e-02
5             	1.992764e-01	1.051102e-02	1.999749e-02	1.835092e-01	2.001645e-01	7.507473e-02	9.663666e-03
6             	1.353956e-01	9.171717e-03	1.593940e-02	1.516297e-01	1.625252e-01	6.122907e-02	8.654306e-03
7             	9.390662e-02	8.648532e-03	1.278581e-02	1.290296e-01	1.366221e-01	5.314363e-02	8.058685e-03
8             	9.536091e-02	8.040742e-03	1.165366e-02	1.121785e-01	1.177230e-01	4.593719e-02	7.577708e-03
9             	7.197197e-02	7.763509e-03	9.683592e-03	9.913587e-02	1.033216e-01	4.166550e-02	7.234960e-03
10            	7.144870e-02	7.316689e-03	9.146975e-03	8.874030e-02	9.199256e-02	3.720475e-02	6.947521e-03
11            	5.776597e-02	7.102798e-03	7.829058e-03	8.026421e-02	8.284663e-02	3.457452e-02	6.696752e-03
12            	5.576627e-02	6.757506e-03	7.554911e-03	7.322189e-02	7.530640e-02	3.153107e-02	6.489183e-03
13            	4.445718e-02	6.610532e-03	6.662456e-03	6.727861e-02	6.898630e-02	2.975740e-02	6.285538e-03
14            	4.380141e-02	6.352424e-03	6.498071e-03	6.219544e-02	6.361253e-02	2.753143e-02	6.095865e-03
15            	3.642870e-02	6.238512e-03	5.838861e-03	5.780004e-02	5.898755e-02	2.624107e-02	5.908420e-03
16            	3.534960e-02	6.053617e-03	5.742769e-03	5.396217e-02	5.496522e-02	2.453558e-02	5.730104e-03
17            	3.044896e-02	5.966573e-03	5.253481e-03	5.058237e-02	5.143393e-02	2.353701e-02	5.554915e-03
18            	2.951279e-02	5.838935e-03	5.189995e-03	4.758322e-02	4.830979e-02	2.219852e-02	5.377105e-03
19            	2.609841e-02	5.781176e-03	4.824670e-03	4.490336e-02	4.552660e-02	2.137842e-02	5.210167e-03
20            	2.534738e-02	5.697377e-03	4.779726e-03	4.249366e-02	4.303156e-02	2.029444e-02	5.035498e-03
21            	2.286079e-02	5.663458e-03	4.510147e-03	4.031566e-02	4.078221e-02	1.959872e-02	4.866918e-03
22            	2.236695e-02	5.613979e-03	4.475879e-03	3.833813e-02	3.874407e-02	1.870383e-02	4.700252e-03
23            	2.074133e-02	5.605041e-03	4.280703e-03	3.653517e-02	3.688879e-02	1.810785e-02	4.549206e-03
24            	1.965621e-02	5.581321e-03	4.257946e-03	3.488449e-02	3.519291e-02	1.736318e-02	4.397327e-03
25            	1.821272e-02	5.593167e-03	4.117198e-03	3.336700e-02	3.363681e-02	1.684884e-02	4.264734e-03
26            	1.784477e-02	5.585317e-03	4.100239e-03	3.196715e-02	3.220396e-02	1.622316e-02	4.140624e-03
27            	1.685456e-02	5.613779e-03	3.998422e-03	3.067188e-02	3.088033e-02	1.577358e-02	4.033357e-03
28            	1.658891e-02	5.618358e-03	3.989301e-03	2.947001e-02	2.965390e-02	1.524337e-02	3.937069e-03
29            	1.555924e-02	5.658774e-03	3.919313e-03	2.835189e-02	2.851412e-02	1.484575e-02	3.864484e-03
30            	1.498811e-02	5.671249e-03	3.916146e-03	2.730937e-02	2.745244e-02	1.439191e-02	3.802222e-03
31            	1.447573e-02	5.720169e-03	3.869825e-03	2.633508e-02	2.646118e-02	1.404046e-02	3.756282e-03
32            	1.565489e-02	5.743468e-03	3.870413e-03	2.542264e-02	2.553357e-02	1.365720e-02	3.718124e-03
33            	1.622131e-02	5.796554e-03	3.838837e-03	2.456624e-02	2.466374e-02	1.333979e-02	3.691500e-03
34            	1.661429e-02	5.822377e-03	3.842764e-03	2.376094e-02	2.384648e-02	1.301930e-02	3.669329e-03
35            	1.599728e-02	5.871445e-03	3.822937e-03	2.300235e-02	2.307721e-02	1.272406e-02	3.658869e-03
36            	1.611654e-02	5.899197e-03	3.825731e-03	2.228659e-02	2.235186e-02	1.245720e-02	3.655700e-03
37            	1.567824e-02	5.935121e-03	3.808422e-03	2.161021e-02	2.166680e-02	1.218831e-02	3.652791e-03
38            	1.605681e-02	5.945718e-03	3.805736e-03	2.097006e-02	2.101881e-02	1.195538e-02	3.642891e-03
39            	1.515029e-02	5.956748e-03	3.788898e-03	2.036330e-02	2.040498e-02	1.171303e-02	3.629375e-03
40            	1.463064e-02	5.944990e-03	3.780986e-03	1.978736e-02	1.982272e-02	1.150111e-02	3.605925e-03
41            	1.370204e-02	5.929676e-03	3.769197e-03	1.923991e-02	1.926968e-02	1.128117e-02	3.572684e-03
42            	1.328456e-02	5.894713e-03	3.764124e-03	1.871889e-02	1.874374e-02	1.108629e-02	3.519261e-03
43            	1.312740e-02	5.850388e-03	3.749448e-03	1.822251e-02	1.824298e-02	1.088456e-02	3.463556e-03
44            	1.323630e-02	5.790974e-03	3.737185e-03	1.774915e-02	1.776567e-02	1.070259e-02	3.411637e-03
45            	1.323280e-02	5.721719e-03	3.721425e-03	1.729731e-02	1.731022e-02	1.051647e-02	3.346084e-03
46            	1.371475e-02	5.640300e-03	3.707890e-03	1.686558e-02	1.687518e-02	1.034717e-02	3.266594e-03
47            	1.384477e-02	5.549162e-03	3.692171e-03	1.645265e-02	1.645922e-02	1.017603e-02	3.180325e-03
48            	1.448333e-02	5.447347e-03	3.683180e-03	1.605733e-02	1.606115e-02	1.001684e-02	3.089264e-03
49            	1.509075e-02	5.335462e-03	3.669368e-03	1.567854e-02	1.567981e-02	9.859171e-03	2.994937e-03
50            	1.492777e-02	5.215625e-03	3.646344e-03	1.531524e-02	1.531410e-02	9.710228e-03	2.901743e-03
51            	1.498232e-02	5.091328e-03	3.627940e-03	1.496653e-02	1.496320e-02	9.565988e-03	2.815944e-03
52            	1.579311e-02	4.963321e-03	3.611509e-03	1.463156e-02	1.462624e-02	9.427175e-03	2.735756e-03
53            	1.634850e-02	4.837384e-03	3.600402e-03	1.430953e-02	1.430242e-02	9.294200e-03	2.661641e-03
54            	1.657351e-02	4.703821e-03	3.593934e-03	1.399972e-02	1.399100e-02	9.162131e-03	2.593401e-03
55            	1.617867e-02	4.571505e-03	3.596582e-03	1.370146e-02	1.369128e-02	9.037993e-03	2.530725e-03
56            	1.514850e-02	4.443675e-03	3.603531e-03	1.341410e-02	1.340264e-02	8.917698e-03	2.475422e-03
57            	1.486493e-02	4.325456e-03	3.619068e-03	1.313707e-02	1.312447e-02	8.799123e-03	2.430360e-03
58            	1.587757e-02	4.210675e-03	3.643175e-03	1.286981e-02	1.285622e-02	8.683069e-03	2.396007e-03
59            	1.817238e-02	4.100216e-03	3.671255e-03	1.261179e-02	1.259737e-02	8.569148e-03	2.368833e-03
60            	1.807752e-02	3.993947e-03	3.702561e-03	1.236255e-02	1.234745e-02	8.455127e-03	2.348766e-03
61            	1.726492e-02	3.897354e-03	3.721646e-03	1.212166e-02	1.210604e-02	8.339631e-03	2.334610e-03
62            	1.616574e-02	3.809789e-03	3.729649e-03	1.188874e-02	1.187269e-02	8.223105e-03	2.318421e-03
63            	1.627372e-02	3.732836e-03	3.737232e-03	1.166342e-02	1.164701e-02	8.105638e-03	2.309319e-03
64            	2.000141e-02	3.669949e-03	3.741506e-03	1.144538e-02	1.142866e-02	7.988444e-03	2.304165e-03
65            	1.903774e-02	3.614636e-03	3.756183e-03	1.123429e-02	1.121732e-02	7.876421e-03	2.292827e-03
66            	1.901555e-02	3.568756e-03	3.792878e-03	1.102984e-02	1.101268e-02	7.768934e-03	2.285810e-03
67            	1.909279e-02	3.527339e-03	3.822223e-03	1.083174e-02	1.081444e-02	7.665418e-03	2.282517e-03
68            	1.867554e-02	3.483902e-03	3.841640e-03	1.063968e-02	1.062230e-02	7.566151e-03	2.279842e-03
69            	1.986698e-02	3.437862e-03	3.850588e-03	1.045347e-02	1.043601e-02	7.469808e-03	2.285178e-03
70            	2.136022e-02	3.387372e-03	3.853860e-03	1.027286e-02	1.025530e-02	7.375584e-03	2.303594e-03
71            	2.278181e-02	3.340851e-03	3.863936e-03	1.009761e-02	1.007994e-02	7.283135e-03	2.326451e-03
72            	2.421057e-02	3.301850e-03	3.891019e-03	9.927506e-03	9.909694e-03	7.192428e-03	2.335810e-03
73            	2.200881e-02	3.271039e-03	3.920218e-03	9.762316e-03	9.744362e-03	7.103337e-03	2.339509e-03
74            	2.152065e-02	3.231623e-03	3.980621e-03	9.601857e-03	9.583739e-03	7.015701e-03	2.330530e-03
75            	2.122645e-02	3.186295e-03	4.039855e-03	9.445939e-03	9.427634e-03	6.929535e-03	2.314389e-03
76            	2.064064e-02	3.152164e-03	4.109613e-03	9.294382e-03	9.275858e-03	6.844897e-03	2.297992e-03
77            	2.169743e-02	3.129195e-03	4.190677e-03	9.147014e-03	9.128202e-03	6.761852e-03	2.282153e-03
78            	2.134897e-02	3.108806e-03	4.284325e-03	9.003661e-03	8.984511e-03	6.680371e-03	2.262298e-03
79            	2.445923e-02	3.089854e-03	4.383481e-03	8.864151e-03	8.844662e-03	6.600146e-03	2.252619e-03
80            	2.185068e-02	3.077038e-03	4.481073e-03	8.728316e-03	8.708505e-03	6.521289e-03	2.239266e-03
81            	2.197965e-02	3.050958e-03	4.564379e-03	8.596030e-03	8.575905e-03	6.443189e-03	2.219082e-03
82            	2.248562e-02	3.033712e-03	4.641523e-03	8.467158e-03	8.446727e-03	6.366121e-03	2.201149e-03
83            	2.132881e-02	3.019877e-03	4.718673e-03	8.341579e-03	8.320854e-03	6.290229e-03	2.182594e-03
84            	2.090064e-02	3.009447e-03	4.795476e-03	8.219176e-03	8.198162e-03	6.215321e-03	2.171185e-03
85            	2.196683e-02	3.001150e-03	4.869018e-03	8.099817e-03	8.078542e-03	6.141595e-03	2.160369e-03
86            	2.165344e-02	3.004253e-03	4.940975e-03	7.983377e-03	7.961884e-03	6.069226e-03	2.148173e-03
87            	2.204101e-02	3.004758e-03	4.990968e-03	7.869757e-03	7.848086e-03	5.998532e-03	2.136038e-03
88            	2.226183e-02	3.026260e-03	5.038076e-03	7.758840e-03	7.737053e-03	5.929316e-03	2.123429e-03
89            	2.237656e-02	3.047215e-03	5.080236e-03	7.650512e-03	7.628689e-03	5.862400e-03	2.110991e-03
90            	2.415300e-02	3.082912e-03	5.125768e-03	7.544699e-03	7.522899e-03	5.797457e-03	2.090774e-03
91            	2.401626e-02	3.142583e-03	5.192333e-03	7.441307e-03	7.419597e-03	5.734934e-03	2.082006e-03
92            	2.537331e-02	3.185798e-03	5.223100e-03	7.340251e-03	7.318693e-03	5.674116e-03	2.082145e-03
93            	2.731572e-02	3.249173e-03	5.226416e-03	7.241565e-03	7.220128e-03	5.615308e-03	2.084207e-03
94            	2.870893e-02	3.296603e-03	5.230310e-03	7.145221e-03	7.123831e-03	5.557987e-03	2.077230e-03
95            	3.093494e-02	3.338684e-03	5.216280e-03	7.051137e-03	7.029732e-03	5.502476e-03	2.056264e-03
96            	3.132095e-02	3.402956e-03	5.238961e-03	6.959183e-03	6.937756e-03	5.448774e-03	2.053159e-03
97            	3.219595e-02	3.479793e-03	5.259203e-03	6.869285e-03	6.847831e-03	5.396436e-03	2.074463e-03
98            	3.221863e-02	3.544466e-03	5.238937e-03	6.781366e-03	6.759880e-03	5.345522e-03	2.098994e-03
99            	3.187334e-02	3.562924e-03	5.162185e-03	6.695365e-03	6.673825e-03	5.295312e-03	2.124305e-03
100           	3.325273e-02	3.547531e-03	5.013766e-03	6.611212e-03	6.589629e-03	5.245364e-03	2.129488e-03
101           	3.103557e-02	3.537733e-03	4.862657e-03	6.528843e-03	6.507236e-03	5.196200e-03	2.130970e-03
102           	3.066822e-02	3.529189e-03	4.747481e-03	6.448188e-03	6.426593e-03	5.146670e-03	2.148397e-03
103           	3.147061e-02	3.513726e-03	4.668558e-03	6.369214e-03	6.347646e-03	5.097155e-03	2.169867e-03
104           	3.113532e-02	3.487626e-03	4.598779e-03	6.291852e-03	6.270343e-03	5.048468e-03	2.188915e-03
105           	2.988804e-02	3.470584e-03	4.521404e-03	6.216057e-03	6.194639e-03	5.000590e-03	2.207925e-03
106           	3.006155e-02	3.452729e-03	4.455161e-03	6.141778e-03	6.120489e-03	4.953573e-03	2.239760e-03
107           	3.042743e-02	3.432634e-03	4.369671e-03	6.068978e-03	6.047848e-03	4.907686e-03	2.271807e-03
108           	2.926200e-02	3.416964e-03	4.299628e-03	5.997598e-03	5.976668e-03	4.863019e-03	2.294265e-03
109           	2.954492e-02	3.402924e-03	4.245487e-03	5.927616e-03	5.906885e-03	4.819408e-03	2.324306e-03
110           	2.913954e-02	3.378257e-03	4.177918e-03	5.858989e-03	5.838476e-03	4.777757e-03	2.367487e-03
111           	2.778127e-02	3.370603e-03	4.133617e-03	5.791679e-03	5.771418e-03	4.736798e-03	2.403751e-03
112           	2.774400e-02	3.360820e-03	4.093799e-03	5.725652e-03	5.705672e-03	4.696944e-03	2.452556e-03
113           	2.730528e-02	3.340892e-03	4.068829e-03	5.660876e-03	5.641205e-03	4.658524e-03	2.496579e-03
114           	2.769782e-02	3.328889e-03	4.053721e-03	5.597314e-03	5.577981e-03	4.620877e-03	2.525650e-03
115           	2.798993e-02	3.313381e-03	4.037011e-03	5.534929e-03	5.515968e-03	4.584022e-03	2.572619e-03
116           	2.770967e-02	3.285721e-03	4.028258e-03	5.473700e-03	5.455133e-03	4.548184e-03	2.598028e-03
117           	2.806942e-02	3.246398e-03	4.001504e-03	5.413633e-03	5.395447e-03	4.512129e-03	2.605276e-03
118           	2.717769e-02	3.215282e-03	3.976271e-03	5.354679e-03	5.336879e-03	4.476693e-03	2.611039e-03
119           	2.812683e-02	3.175654e-03	3.941856e-03	5.296813e-03	5.279400e-03	4.441232e-03	2.601254e-03
120           	2.596462e-02	3.144856e-03	3.925906e-03	5.239977e-03	5.222983e-03	4.405417e-03	2.616993e-03
121           	2.643805e-02	3.101904e-03	3.894419e-03	5.184143e-03	5.167599e-03	4.369434e-03	2.605441e-03
122           	2.658631e-02	3.080523e-03	3.901752e-03	5.129280e-03	5.113222e-03	4.333129e-03	2.580014e-03
123           	2.815694e-02	3.052425e-03	3.919895e-03	5.075402e-03	5.059830e-03	4.295797e-03	2.574614e-03
124           	2.859469e-02	3.041557e-03	3.949308e-03	5.022470e-03	5.007397e-03	4.257598e-03	2.575233e-03
125           	3.095105e-02	3.030048e-03	3.970833e-03	4.970472e-03	4.955903e-03	4.218288e-03	2.555671e-03
126           	3.283954e-02	3.033491e-03	4.039308e-03	4.919382e-03	4.905322e-03	4.178480e-03	2.543803e-03
127           	3.245680e-02	3.040276e-03	4.118242e-03	4.869184e-03	4.855631e-03	4.136972e-03	2.561369e-03
128           	3.438625e-02	3.063425e-03	4.245649e-03	4.819845e-03	4.806804e-03	4.094314e-03	2.530859e-03
129           	3.748102e-02	3.076167e-03	4.377690e-03	4.771354e-03	4.758821e-03	4.050327e-03	2.552612e-03
130           	3.860626e-02	3.088427e-03	4.513440e-03	4.723694e-03	4.711661e-03	4.005524e-03	2.544845e-03
131           	3.992676e-02	3.114145e-03	4.678075e-03	4.676835e-03	4.665306e-03	3.958795e-03	2.546223e-03
132           	4.090506e-02	3.126766e-03	4.865268e-03	4.630755e-03	4.619734e-03	3.910766e-03	2.549287e-03
133           	4.275764e-02	3.146364e-03	5.085398e-03	4.585412e-03	4.574925e-03	3.862563e-03	2.560682e-03
134           	4.298708e-02	3.167596e-03	5.311427e-03	4.540788e-03	4.530861e-03	3.814666e-03	2.545276e-03
135           	4.520102e-02	3.202092e-03	5.551379e-03	4.496898e-03	4.487525e-03	3.769611e-03	2.532279e-03
136           	4.402589e-02	3.216860e-03	5.716792e-03	4.453746e-03	4.444889e-03	3.726292e-03	2.560757e-03
137           	4.219920e-02	3.226856e-03	5.834083e-03	4.411324e-03	4.402931e-03	3.685191e-03	2.510646e-03
138           	4.665997e-02	3.219391e-03	6.142597e-03	4.369610e-03	4.361643e-03	3.646699e-03	2.462964e-03
139           	4.514469e-02	3.219445e-03	6.265337e-03	4.328583e-03	4.321028e-03	3.609912e-03	2.416825e-03
140           	4.622739e-02	3.199880e-03	6.515143e-03	4.288231e-03	4.281071e-03	3.575536e-03	2.380915e-03
141           	4.641044e-02	3.166459e-03	6.698748e-03	4.248546e-03	4.241756e-03	3.541356e-03	2.333839e-03
142           	4.519187e-02	3.154644e-03	6.955606e-03	4.209519e-03	4.203066e-03	3.508934e-03	2.305048e-03
143           	4.398233e-02	3.149714e-03	7.237401e-03	4.171131e-03	4.164982e-03	3.478256e-03	2.281017e-03
144           	4.402010e-02	3.152908e-03	7.478730e-03	4.133368e-03	4.127478e-03	3.449715e-03	2.262662e-03
145           	4.478404e-02	3.143027e-03	7.652494e-03	4.096199e-03	4.090555e-03	3.422600e-03	2.254040e-03
146           	4.704999e-02	3.149872e-03	7.819163e-03	4.059606e-03	4.054208e-03	3.396854e-03	2.239428e-03
147           	4.635704e-02	3.124999e-03	7.796251e-03	4.023594e-03	4.018427e-03	3.370988e-03	2.227859e-03
148           	4.737561e-02	3.099434e-03	7.638639e-03	3.988132e-03	3.983201e-03	3.345790e-03	2.223336e-03
149           	4.845179e-02	3.078879e-03	7.403457e-03	3.953212e-03	3.948520e-03	3.319835e-03	2.228792e-03
150           	4.706541e-02	3.056750e-03	7.215100e-03	3.918822e-03	3.914362e-03	3.294436e-03	2.241176e-03
151           	4.544587e-02	3.015863e-03	7.147097e-03	3.884943e-03	3.880722e-03	3.269899e-03	2.245161e-03
152           	4.229506e-02	2.994316e-03	7.131599e-03	3.851575e-03	3.847588e-03	3.246951e-03	2.261123e-03
153           	4.132716e-02	2.979308e-03	7.187434e-03	3.818704e-03	3.814948e-03	3.225728e-03	2.275158e-03
154           	4.061415e-02	2.963752e-03	7.235094e-03	3.786320e-03	3.782796e-03	3.205880e-03	2.289353e-03
155           	4.168556e-02	2.944519e-03	7.266529e-03	3.754438e-03	3.751126e-03	3.187716e-03	2.287143e-03
156           	4.187960e-02	2.923552e-03	7.280568e-03	3.723030e-03	3.719929e-03	3.171028e-03	2.316478e-03
157           	4.389343e-02	2.894302e-03	7.239250e-03	3.692091e-03	3.689194e-03	3.155532e-03	2.356067e-03
158           	4.310656e-02	2.869482e-03	7.198951e-03	3.661595e-03	3.658912e-03	3.141552e-03	2.389793e-03
159           	4.247189e-02	2.840713e-03	7.146135e-03	3.631537e-03	3.629075e-03	3.128983e-03	2.432283e-03
160           	3.972017e-02	2.810949e-03	7.098453e-03	3.601920e-03	3.599677e-03	3.117705e-03	2.495650e-03
161           	3.945213e-02	2.773117e-03	7.033911e-03	3.572733e-03	3.570706e-03	3.108263e-03	2.558623e-03
162           	3.814105e-02	2.745968e-03	7.000097e-03	3.543967e-03	3.542160e-03	3.100186e-03	2.611697e-03
163           	3.905340e-02	2.700773e-03	6.902709e-03	3.515625e-03	3.514028e-03	3.093468e-03	2.676412e-03
164           	3.877234e-02	2.671535e-03	6.832319e-03	3.487678e-03	3.486303e-03	3.089968e-03	2.723817e-03
165           	3.748430e-02	2.628781e-03	6.753133e-03	3.460127e-03	3.458979e-03	3.088242e-03	2.771156e-03
166           	3.530474e-02	2.593323e-03	6.653251e-03	3.432969e-03	3.432051e-03	3.089059e-03	2.847533e-03
167           	3.567406e-02	2.554781e-03	6.548100e-03	3.406201e-03	3.405510e-03	3.091210e-03	2.905230e-03
168           	3.670375e-02	2.527814e-03	6.447888e-03	3.379806e-03	3.379349e-03	3.094158e-03	2.975862e-03
169           	3.720037e-02	2.514740e-03	6.387137e-03	3.353780e-03	3.353560e-03	3.098239e-03	3.049372e-03
170           	3.887385e-02	2.503255e-03	6.363484e-03	3.328115e-03	3.328134e-03	3.104068e-03	3.146125e-03
171           	4.071961e-02	2.521438e-03	6.401446e-03	3.302817e-03	3.303066e-03	3.109633e-03	3.246283e-03
172           	4.074264e-02	2.528629e-03	6.468712e-03	3.277875e-03	3.278351e-03	3.116158e-03	3.331831e-03
173           	4.313721e-02	2.548289e-03	6.491056e-03	3.253289e-03	3.253980e-03	3.120967e-03	3.411020e-03
174           	4.393560e-02	2.572820e-03	6.547725e-03	3.229063e-03	3.229939e-03	3.125608e-03	3.495971e-03
175           	4.534907e-02	2.599558e-03	6.618161e-03	3.205161e-03	3.206221e-03	3.127964e-03	3.553690e-03
176           	4.600434e-02	2.650292e-03	6.678727e-03	3.181574e-03	3.182825e-03	3.127262e-03	3.647266e-03
177           	4.728575e-02	2.696314e-03	6.705041e-03	3.158295e-03	3.159746e-03	3.124625e-03	3.720886e-03
178           	5.137822e-02	2.749694e-03	6.697598e-03	3.135296e-03	3.136972e-03	3.117152e-03	3.720450e-03
179           	5.086892e-02	2.789316e-03	6.653761e-03	3.112559e-03	3.114503e-03	3.104228e-03	3.751508e-03
180           	5.257693e-02	2.812665e-03	6.512632e-03	3.090128e-03	3.092322e-03	3.085710e-03	3.752273e-03
181           	5.209328e-02	2.823433e-03	6.308394e-03	3.067975e-03	3.070419e-03	3.060328e-03	3.711812e-03
182           	5.335677e-02	2.855758e-03	6.201081e-03	3.046128e-03	3.048786e-03	3.030035e-03	3.664795e-03
183           	5.334191e-02	2.884741e-03	6.144115e-03	3.024612e-03	3.027428e-03	2.994855e-03	3.600581e-03
184           	5.529330e-02	2.880333e-03	5.960405e-03	3.003355e-03	3.006339e-03	2.955269e-03	3.548148e-03
185           	5.671287e-02	2.928795e-03	5.929258e-03	2.982339e-03	2.985512e-03	2.911725e-03	3.456601e-03
186           	5.687494e-02	2.942355e-03	5.801118e-03	2.961557e-03	2.964947e-03	2.864933e-03	3.383945e-03
187           	5.637716e-02	2.965619e-03	5.658344e-03	2.940999e-03	2.944638e-03	2.818701e-03	3.281192e-03
188           	5.635022e-02	2.999219e-03	5.614014e-03	2.920672e-03	2.924578e-03	2.772603e-03	3.204474e-03
189           	5.448634e-02	3.013130e-03	5.515926e-03	2.900592e-03	2.904760e-03	2.730089e-03	3.131594e-03
190           	5.424426e-02	3.065380e-03	5.471491e-03	2.880765e-03	2.885182e-03	2.684351e-03	3.072166e-03
191           	5.170881e-02	3.095944e-03	5.413326e-03	2.861208e-03	2.865839e-03	2.635110e-03	3.014109e-03
192           	4.983722e-02	3.117816e-03	5.317060e-03	2.841906e-03	2.846727e-03	2.587892e-03	2.986756e-03
193           	5.027811e-02	3.137478e-03	5.228467e-03	2.822842e-03	2.827843e-03	2.546846e-03	2.950775e-03
194           	4.953833e-02	3.181919e-03	5.224684e-03	2.804011e-03	2.809187e-03	2.514373e-03	2.947239e-03
195           	5.037270e-02	3.231213e-03	5.197046e-03	2.785414e-03	2.790756e-03	2.489642e-03	2.946093e-03
196           	5.033734e-02	3.299971e-03	5.216203e-03	2.767040e-03	2.772549e-03	2.471820e-03	2.909795e-03
197           	5.126062e-02	3.372312e-03	5.240861e-03	2.748885e-03	2.754570e-03	2.461207e-03	2.956028e-03
198           	5.138129e-02	3.440935e-03	5.289213e-03	2.730948e-03	2.736811e-03	2.456090e-03	2.963519e-03
199           	5.274877e-02	3.526117e-03	5.394377e-03	2.713221e-03	2.719265e-03	2.447936e-03	2.991910e-03
200           	5.389896e-02	3.592388e-03	5.497710e-03	2.695708e-03	2.701934e-03	2.438625e-03	3.042105e-03
201           	5.389170e-02	3.651301e-03	5.598379e-03	2.678399e-03	2.684814e-03	2.428522e-03	3.087316e-03
202           	5.601245e-02	3.714094e-03	5.711515e-03	2.661271e-03	2.667899e-03	2.418147e-03	3.182713e-03
203           	5.730150e-02	3.777874e-03	5.849585e-03	2.644349e-03	2.651191e-03	2.407358e-03	3.295924e-03
204           	5.944456e-02	3.861049e-03	5.981249e-03	2.627628e-03	2.634682e-03	2.398049e-03	3.431744e-03
205           	6.120476e-02	3.958388e-03	6.134586e-03	2.611094e-03	2.618374e-03	2.387171e-03	3.591144e-03
206           	6.079376e-02	4.071695e-03	6.320685e-03	2.594736e-03	2.602262e-03	2.376702e-03	3.743719e-03
207           	5.965688e-02	4.194843e-03	6.516252e-03	2.578559e-03	2.586337e-03	2.372783e-03	3.914528e-03
208           	6.038365e-02	4.303753e-03	6.693647e-03	2.562560e-03	2.570601e-03	2.374333e-03	4.118886e-03
209           	6.140687e-02	4.439450e-03	6.884924e-03	2.546725e-03	2.555049e-03	2.378204e-03	4.280004e-03
210           	6.086574e-02	4.590471e-03	7.081740e-03	2.531061e-03	2.539678e-03	2.386341e-03	4.458455e-03
211           	6.001472e-02	4.757104e-03	7.273607e-03	2.515575e-03	2.524487e-03	2.395116e-03	4.609061e-03
212           	5.820207e-02	4.889331e-03	7.409227e-03	2.500289e-03	2.509470e-03	2.404710e-03	4.763610e-03
213           	5.544473e-02	5.006178e-03	7.512117e-03	2.485205e-03	2.494627e-03	2.414435e-03	4.875720e-03
214           	5.364513e-02	5.098008e-03	7.580017e-03	2.470315e-03	2.479949e-03	2.423865e-03	4.984949e-03
215           	5.272308e-02	5.186171e-03	7.593834e-03	2.455606e-03	2.465434e-03	2.434088e-03	5.008926e-03
216           	5.105574e-02	5.216724e-03	7.557054e-03	2.441065e-03	2.451082e-03	2.442670e-03	5.079438e-03
217           	5.014238e-02	5.238767e-03	7.489138e-03	2.426703e-03	2.436890e-03	2.451604e-03	5.100591e-03
218           	4.945739e-02	5.240889e-03	7.399802e-03	2.412513e-03	2.422860e-03	2.461486e-03	5.120990e-03
219           	4.879012e-02	5.227792e-03	7.306045e-03	2.398512e-03	2.408989e-03	2.472062e-03	5.172909e-03
220           	4.900619e-02	5.212473e-03	7.232332e-03	2.384691e-03	2.395271e-03	2.483967e-03	5.192525e-03
221           	4.735955e-02	5.193430e-03	7.166256e-03	2.371056e-03	2.381705e-03	2.496733e-03	5.195440e-03
222           	4.808587e-02	5.168753e-03	7.124977e-03	2.357599e-03	2.368292e-03	2.510905e-03	5.186531e-03
223           	4.943592e-02	5.132960e-03	7.088517e-03	2.344298e-03	2.355031e-03	2.525842e-03	5.219709e-03
224           	5.104483e-02	5.106698e-03	7.063525e-03	2.331134e-03	2.341920e-03	2.542506e-03	5.203818e-03
225           	5.148265e-02	5.068323e-03	7.035530e-03	2.318083e-03	2.328958e-03	2.561941e-03	5.098542e-03
226           	5.200538e-02	5.009915e-03	6.993976e-03	2.305173e-03	2.316142e-03	2.583491e-03	5.052398e-03
227           	5.159807e-02	4.951606e-03	6.943288e-03	2.292411e-03	2.303471e-03	2.606624e-03	4.988088e-03
228           	5.231415e-02	4.889883e-03	6.853184e-03	2.279811e-03	2.290943e-03	2.630062e-03	4.906744e-03
229           	5.309835e-02	4.811350e-03	6.758314e-03	2.267355e-03	2.278556e-03	2.654063e-03	4.829001e-03
230           	5.242480e-02	4.737784e-03	6.632847e-03	2.255041e-03	2.266308e-03	2.677731e-03	4.673132e-03
231           	5.203983e-02	4.638950e-03	6.469792e-03	2.242859e-03	2.254195e-03	2.699419e-03	4.557207e-03
232           	4.934094e-02	4.557742e-03	6.318603e-03	2.230831e-03	2.242217e-03	2.719008e-03	4.422041e-03
233           	4.748507e-02	4.441095e-03	6.102186e-03	2.218947e-03	2.230372e-03	2.734999e-03	4.295167e-03
234           	4.633071e-02	4.356800e-03	5.921501e-03	2.207197e-03	2.218656e-03	2.747289e-03	4.166360e-03
235           	4.554326e-02	4.239327e-03	5.711763e-03	2.195592e-03	2.207065e-03	2.755085e-03	4.084718e-03
236           	4.703634e-02	4.149390e-03	5.542411e-03	2.184111e-03	2.195595e-03	2.759389e-03	3.978243e-03
237           	4.565084e-02	4.036276e-03	5.328163e-03	2.172760e-03	2.184251e-03	2.758990e-03	3.918679e-03
238           	4.580353e-02	3.939321e-03	5.140755e-03	2.161534e-03	2.173027e-03	2.758437e-03	3.867656e-03
239           	4.621907e-02	3.861775e-03	5.008537e-03	2.150430e-03	2.161917e-03	2.757179e-03	3.826260e-03
240           	4.614958e-02	3.806666e-03	4.909048e-03	2.139428e-03	2.150928e-03	2.757729e-03	3.806500e-03
241           	4.662700e-02	3.765369e-03	4.867614e-03	2.128528e-03	2.140050e-03	2.759909e-03	3.790960e-03
242           	4.819018e-02	3.738465e-03	4.870462e-03	2.117739e-03	2.129273e-03	2.763224e-03	3.787623e-03
243           	4.946566e-02	3.704990e-03	4.906056e-03	2.107047e-03	2.118596e-03	2.768442e-03	3.862388e-03
244           	4.927522e-02	3.694025e-03	4.920606e-03	2.096442e-03	2.108002e-03	2.768414e-03	3.832397e-03
245           	5.080676e-02	3.658260e-03	4.974857e-03	2.085943e-03	2.097484e-03	2.748032e-03	3.887120e-03
246           	5.016858e-02	3.625385e-03	5.017879e-03	2.075482e-03	2.087050e-03	2.706517e-03	3.930225e-03
247           	5.235419e-02	3.585557e-03	5.013673e-03	2.065072e-03	2.076704e-03	2.651900e-03	3.997414e-03
248           	5.187997e-02	3.527351e-03	4.981171e-03	2.054749e-03	2.066457e-03	2.593195e-03	4.035909e-03
249           	5.304717e-02	3.503080e-03	4.965763e-03	2.044525e-03	2.056321e-03	2.539209e-03	4.055069e-03
250           	5.407111e-02	3.451848e-03	4.913523e-03	2.034406e-03	2.046299e-03	2.484632e-03	4.093991e-03
251           	5.271009e-02	3.419870e-03	4.910739e-03	2.024408e-03	2.036389e-03	2.437228e-03	4.103553e-03
252           	5.195719e-02	3.374283e-03	4.878898e-03	2.014504e-03	2.026586e-03	2.390714e-03	4.100477e-03
253           	5.097382e-02	3.334393e-03	4.852784e-03	2.004710e-03	2.016886e-03	2.343478e-03	4.074671e-03
254           	5.032737e-02	3.307668e-03	4.823843e-03	1.994992e-03	2.007284e-03	2.290966e-03	4.076476e-03
255           	5.075495e-02	3.278704e-03	4.786364e-03	1.985360e-03	1.997777e-03	2.238622e-03	4.061664e-03
256           	5.161351e-02	3.259775e-03	4.761381e-03	1.975750e-03	1.988363e-03	2.191499e-03	4.003832e-03
257           	5.269862e-02	3.242494e-03	4.719318e-03	1.966166e-03	1.979039e-03	2.150749e-03	3.974888e-03
258           	5.323862e-02	3.253358e-03	4.699308e-03	1.956677e-03	1.969803e-03	2.110152e-03	3.937296e-03
259           	5.337630e-02	3.257207e-03	4.670276e-03	1.947261e-03	1.960653e-03	2.074944e-03	3.905773e-03
260           	5.306537e-02	3.292461e-03	4.635734e-03	1.937950e-03	1.951591e-03	2.046369e-03	3.896363e-03
261           	5.392827e-02	3.339396e-03	4.613582e-03	1.928775e-03	1.942601e-03	2.020522e-03	3.885583e-03
262           	5.753695e-02	3.396002e-03	4.610655e-03	1.919702e-03	1.933686e-03	1.997917e-03	3.929091e-03
263           	5.845299e-02	3.461765e-03	4.629141e-03	1.910720e-03	1.924849e-03	1.986917e-03	3.972232e-03
264           	5.912977e-02	3.510864e-03	4.696873e-03	1.901821e-03	1.916088e-03	1.984571e-03	4.025337e-03
265           	6.117080e-02	3.563310e-03	4.817952e-03	1.893005e-03	1.907400e-03	1.982903e-03	4.076285e-03
266           	6.163229e-02	3.617045e-03	4.992200e-03	1.884265e-03	1.898784e-03	1.980346e-03	4.126109e-03
267           	6.160036e-02	3.671599e-03	5.171267e-03	1.875594e-03	1.890236e-03	1.977992e-03	4.153108e-03
268           	5.964047e-02	3.710963e-03	5.353132e-03	1.866983e-03	1.881755e-03	1.972405e-03	4.165809e-03
269           	5.795903e-02	3.747179e-03	5.495192e-03	1.858430e-03	1.873342e-03	1.964043e-03	4.184113e-03
270           	5.801319e-02	3.788743e-03	5.591834e-03	1.849938e-03	1.864994e-03	1.958110e-03	4.215393e-03
271           	5.853336e-02	3.828537e-03	5.632816e-03	1.841512e-03	1.856716e-03	1.956295e-03	4.253463e-03
272           	5.861660e-02	3.883107e-03	5.613738e-03	1.833143e-03	1.848505e-03	1.959843e-03	4.273273e-03
273           	5.946944e-02	3.918666e-03	5.590017e-03	1.824865e-03	1.840366e-03	1.969160e-03	4.314228e-03
274           	5.861756e-02	3.995810e-03	5.575627e-03	1.816667e-03	1.832296e-03	1.982943e-03	4.319930e-03
275           	5.839608e-02	4.054694e-03	5.555224e-03	1.808570e-03	1.824300e-03	1.996064e-03	4.344515e-03
276           	6.020841e-02	4.145564e-03	5.531924e-03	1.800553e-03	1.816374e-03	2.011880e-03	4.383090e-03
277           	5.974650e-02	4.210417e-03	5.478324e-03	1.792609e-03	1.808525e-03	2.029117e-03	4.400973e-03
278           	5.726536e-02	4.283776e-03	5.430490e-03	1.784739e-03	1.800743e-03	2.049880e-03	4.460084e-03
279           	5.664710e-02	4.362533e-03	5.394327e-03	1.776936e-03	1.793036e-03	2.065454e-03	4.490659e-03
280           	5.523520e-02	4.423839e-03	5.359710e-03	1.769201e-03	1.785406e-03	2.080869e-03	4.523324e-03
281           	5.539530e-02	4.483428e-03	5.344105e-03	1.761547e-03	1.777850e-03	2.092211e-03	4.562590e-03